# vtk DataFile Version 2.0
time_10.vtk
ASCII
DATASET STRUCTURED_GRID
DIMENSIONS    64    64     1
POINTS    4096 float
  0.000000e+00   0.000000e+00   0.000000e+00
  0.000000e+00   1.000000e+00   0.000000e+00
  0.000000e+00   2.000000e+00   0.000000e+00
  0.000000e+00   3.000000e+00   0.000000e+00
  0.000000e+00   4.000000e+00   0.000000e+00
  0.000000e+00   5.000000e+00   0.000000e+00
  0.000000e+00   6.000000e+00   0.000000e+00
  0.000000e+00   7.000000e+00   0.000000e+00
  0.000000e+00   8.000000e+00   0.000000e+00
  0.000000e+00   9.000000e+00   0.000000e+00
  0.000000e+00   1.000000e+01   0.000000e+00
  0.000000e+00   1.100000e+01   0.000000e+00
  0.000000e+00   1.200000e+01   0.000000e+00
  0.000000e+00   1.300000e+01   0.000000e+00
  0.000000e+00   1.400000e+01   0.000000e+00
  0.000000e+00   1.500000e+01   0.000000e+00
  0.000000e+00   1.600000e+01   0.000000e+00
  0.000000e+00   1.700000e+01   0.000000e+00
  0.000000e+00   1.800000e+01   0.000000e+00
  0.000000e+00   1.900000e+01   0.000000e+00
  0.000000e+00   2.000000e+01   0.000000e+00
  0.000000e+00   2.100000e+01   0.000000e+00
  0.000000e+00   2.200000e+01   0.000000e+00
  0.000000e+00   2.300000e+01   0.000000e+00
  0.000000e+00   2.400000e+01   0.000000e+00
  0.000000e+00   2.500000e+01   0.000000e+00
  0.000000e+00   2.600000e+01   0.000000e+00
  0.000000e+00   2.700000e+01   0.000000e+00
  0.000000e+00   2.800000e+01   0.000000e+00
  0.000000e+00   2.900000e+01   0.000000e+00
  0.000000e+00   3.000000e+01   0.000000e+00
  0.000000e+00   3.100000e+01   0.000000e+00
  0.000000e+00   3.200000e+01   0.000000e+00
  0.000000e+00   3.300000e+01   0.000000e+00
  0.000000e+00   3.400000e+01   0.000000e+00
  0.000000e+00   3.500000e+01   0.000000e+00
  0.000000e+00   3.600000e+01   0.000000e+00
  0.000000e+00   3.700000e+01   0.000000e+00
  0.000000e+00   3.800000e+01   0.000000e+00
  0.000000e+00   3.900000e+01   0.000000e+00
  0.000000e+00   4.000000e+01   0.000000e+00
  0.000000e+00   4.100000e+01   0.000000e+00
  0.000000e+00   4.200000e+01   0.000000e+00
  0.000000e+00   4.300000e+01   0.000000e+00
  0.000000e+00   4.400000e+01   0.000000e+00
  0.000000e+00   4.500000e+01   0.000000e+00
  0.000000e+00   4.600000e+01   0.000000e+00
  0.000000e+00   4.700000e+01   0.000000e+00
  0.000000e+00   4.800000e+01   0.000000e+00
  0.000000e+00   4.900000e+01   0.000000e+00
  0.000000e+00   5.000000e+01   0.000000e+00
  0.000000e+00   5.100000e+01   0.000000e+00
  0.000000e+00   5.200000e+01   0.000000e+00
  0.000000e+00   5.300000e+01   0.000000e+00
  0.000000e+00   5.400000e+01   0.000000e+00
  0.000000e+00   5.500000e+01   0.000000e+00
  0.000000e+00   5.600000e+01   0.000000e+00
  0.000000e+00   5.700000e+01   0.000000e+00
  0.000000e+00   5.800000e+01   0.000000e+00
  0.000000e+00   5.900000e+01   0.000000e+00
  0.000000e+00   6.000000e+01   0.000000e+00
  0.000000e+00   6.100000e+01   0.000000e+00
  0.000000e+00   6.200000e+01   0.000000e+00
  0.000000e+00   6.300000e+01   0.000000e+00
  1.000000e+00   0.000000e+00   0.000000e+00
  1.000000e+00   1.000000e+00   0.000000e+00
  1.000000e+00   2.000000e+00   0.000000e+00
  1.000000e+00   3.000000e+00   0.000000e+00
  1.000000e+00   4.000000e+00   0.000000e+00
  1.000000e+00   5.000000e+00   0.000000e+00
  1.000000e+00   6.000000e+00   0.000000e+00
  1.000000e+00   7.000000e+00   0.000000e+00
  1.000000e+00   8.000000e+00   0.000000e+00
  1.000000e+00   9.000000e+00   0.000000e+00
  1.000000e+00   1.000000e+01   0.000000e+00
  1.000000e+00   1.100000e+01   0.000000e+00
  1.000000e+00   1.200000e+01   0.000000e+00
  1.000000e+00   1.300000e+01   0.000000e+00
  1.000000e+00   1.400000e+01   0.000000e+00
  1.000000e+00   1.500000e+01   0.000000e+00
  1.000000e+00   1.600000e+01   0.000000e+00
  1.000000e+00   1.700000e+01   0.000000e+00
  1.000000e+00   1.800000e+01   0.000000e+00
  1.000000e+00   1.900000e+01   0.000000e+00
  1.000000e+00   2.000000e+01   0.000000e+00
  1.000000e+00   2.100000e+01   0.000000e+00
  1.000000e+00   2.200000e+01   0.000000e+00
  1.000000e+00   2.300000e+01   0.000000e+00
  1.000000e+00   2.400000e+01   0.000000e+00
  1.000000e+00   2.500000e+01   0.000000e+00
  1.000000e+00   2.600000e+01   0.000000e+00
  1.000000e+00   2.700000e+01   0.000000e+00
  1.000000e+00   2.800000e+01   0.000000e+00
  1.000000e+00   2.900000e+01   0.000000e+00
  1.000000e+00   3.000000e+01   0.000000e+00
  1.000000e+00   3.100000e+01   0.000000e+00
  1.000000e+00   3.200000e+01   0.000000e+00
  1.000000e+00   3.300000e+01   0.000000e+00
  1.000000e+00   3.400000e+01   0.000000e+00
  1.000000e+00   3.500000e+01   0.000000e+00
  1.000000e+00   3.600000e+01   0.000000e+00
  1.000000e+00   3.700000e+01   0.000000e+00
  1.000000e+00   3.800000e+01   0.000000e+00
  1.000000e+00   3.900000e+01   0.000000e+00
  1.000000e+00   4.000000e+01   0.000000e+00
  1.000000e+00   4.100000e+01   0.000000e+00
  1.000000e+00   4.200000e+01   0.000000e+00
  1.000000e+00   4.300000e+01   0.000000e+00
  1.000000e+00   4.400000e+01   0.000000e+00
  1.000000e+00   4.500000e+01   0.000000e+00
  1.000000e+00   4.600000e+01   0.000000e+00
  1.000000e+00   4.700000e+01   0.000000e+00
  1.000000e+00   4.800000e+01   0.000000e+00
  1.000000e+00   4.900000e+01   0.000000e+00
  1.000000e+00   5.000000e+01   0.000000e+00
  1.000000e+00   5.100000e+01   0.000000e+00
  1.000000e+00   5.200000e+01   0.000000e+00
  1.000000e+00   5.300000e+01   0.000000e+00
  1.000000e+00   5.400000e+01   0.000000e+00
  1.000000e+00   5.500000e+01   0.000000e+00
  1.000000e+00   5.600000e+01   0.000000e+00
  1.000000e+00   5.700000e+01   0.000000e+00
  1.000000e+00   5.800000e+01   0.000000e+00
  1.000000e+00   5.900000e+01   0.000000e+00
  1.000000e+00   6.000000e+01   0.000000e+00
  1.000000e+00   6.100000e+01   0.000000e+00
  1.000000e+00   6.200000e+01   0.000000e+00
  1.000000e+00   6.300000e+01   0.000000e+00
  2.000000e+00   0.000000e+00   0.000000e+00
  2.000000e+00   1.000000e+00   0.000000e+00
  2.000000e+00   2.000000e+00   0.000000e+00
  2.000000e+00   3.000000e+00   0.000000e+00
  2.000000e+00   4.000000e+00   0.000000e+00
  2.000000e+00   5.000000e+00   0.000000e+00
  2.000000e+00   6.000000e+00   0.000000e+00
  2.000000e+00   7.000000e+00   0.000000e+00
  2.000000e+00   8.000000e+00   0.000000e+00
  2.000000e+00   9.000000e+00   0.000000e+00
  2.000000e+00   1.000000e+01   0.000000e+00
  2.000000e+00   1.100000e+01   0.000000e+00
  2.000000e+00   1.200000e+01   0.000000e+00
  2.000000e+00   1.300000e+01   0.000000e+00
  2.000000e+00   1.400000e+01   0.000000e+00
  2.000000e+00   1.500000e+01   0.000000e+00
  2.000000e+00   1.600000e+01   0.000000e+00
  2.000000e+00   1.700000e+01   0.000000e+00
  2.000000e+00   1.800000e+01   0.000000e+00
  2.000000e+00   1.900000e+01   0.000000e+00
  2.000000e+00   2.000000e+01   0.000000e+00
  2.000000e+00   2.100000e+01   0.000000e+00
  2.000000e+00   2.200000e+01   0.000000e+00
  2.000000e+00   2.300000e+01   0.000000e+00
  2.000000e+00   2.400000e+01   0.000000e+00
  2.000000e+00   2.500000e+01   0.000000e+00
  2.000000e+00   2.600000e+01   0.000000e+00
  2.000000e+00   2.700000e+01   0.000000e+00
  2.000000e+00   2.800000e+01   0.000000e+00
  2.000000e+00   2.900000e+01   0.000000e+00
  2.000000e+00   3.000000e+01   0.000000e+00
  2.000000e+00   3.100000e+01   0.000000e+00
  2.000000e+00   3.200000e+01   0.000000e+00
  2.000000e+00   3.300000e+01   0.000000e+00
  2.000000e+00   3.400000e+01   0.000000e+00
  2.000000e+00   3.500000e+01   0.000000e+00
  2.000000e+00   3.600000e+01   0.000000e+00
  2.000000e+00   3.700000e+01   0.000000e+00
  2.000000e+00   3.800000e+01   0.000000e+00
  2.000000e+00   3.900000e+01   0.000000e+00
  2.000000e+00   4.000000e+01   0.000000e+00
  2.000000e+00   4.100000e+01   0.000000e+00
  2.000000e+00   4.200000e+01   0.000000e+00
  2.000000e+00   4.300000e+01   0.000000e+00
  2.000000e+00   4.400000e+01   0.000000e+00
  2.000000e+00   4.500000e+01   0.000000e+00
  2.000000e+00   4.600000e+01   0.000000e+00
  2.000000e+00   4.700000e+01   0.000000e+00
  2.000000e+00   4.800000e+01   0.000000e+00
  2.000000e+00   4.900000e+01   0.000000e+00
  2.000000e+00   5.000000e+01   0.000000e+00
  2.000000e+00   5.100000e+01   0.000000e+00
  2.000000e+00   5.200000e+01   0.000000e+00
  2.000000e+00   5.300000e+01   0.000000e+00
  2.000000e+00   5.400000e+01   0.000000e+00
  2.000000e+00   5.500000e+01   0.000000e+00
  2.000000e+00   5.600000e+01   0.000000e+00
  2.000000e+00   5.700000e+01   0.000000e+00
  2.000000e+00   5.800000e+01   0.000000e+00
  2.000000e+00   5.900000e+01   0.000000e+00
  2.000000e+00   6.000000e+01   0.000000e+00
  2.000000e+00   6.100000e+01   0.000000e+00
  2.000000e+00   6.200000e+01   0.000000e+00
  2.000000e+00   6.300000e+01   0.000000e+00
  3.000000e+00   0.000000e+00   0.000000e+00
  3.000000e+00   1.000000e+00   0.000000e+00
  3.000000e+00   2.000000e+00   0.000000e+00
  3.000000e+00   3.000000e+00   0.000000e+00
  3.000000e+00   4.000000e+00   0.000000e+00
  3.000000e+00   5.000000e+00   0.000000e+00
  3.000000e+00   6.000000e+00   0.000000e+00
  3.000000e+00   7.000000e+00   0.000000e+00
  3.000000e+00   8.000000e+00   0.000000e+00
  3.000000e+00   9.000000e+00   0.000000e+00
  3.000000e+00   1.000000e+01   0.000000e+00
  3.000000e+00   1.100000e+01   0.000000e+00
  3.000000e+00   1.200000e+01   0.000000e+00
  3.000000e+00   1.300000e+01   0.000000e+00
  3.000000e+00   1.400000e+01   0.000000e+00
  3.000000e+00   1.500000e+01   0.000000e+00
  3.000000e+00   1.600000e+01   0.000000e+00
  3.000000e+00   1.700000e+01   0.000000e+00
  3.000000e+00   1.800000e+01   0.000000e+00
  3.000000e+00   1.900000e+01   0.000000e+00
  3.000000e+00   2.000000e+01   0.000000e+00
  3.000000e+00   2.100000e+01   0.000000e+00
  3.000000e+00   2.200000e+01   0.000000e+00
  3.000000e+00   2.300000e+01   0.000000e+00
  3.000000e+00   2.400000e+01   0.000000e+00
  3.000000e+00   2.500000e+01   0.000000e+00
  3.000000e+00   2.600000e+01   0.000000e+00
[...]
POINT_DATA  4096
SCALARS CON float 1
LOOKUP_TABLE default
  7.193559e-01
  9.174122e-01
  9.750906e-01
  9.861451e-01
  9.815352e-01
  9.670027e-01
  9.340762e-01
  8.397793e-01
  5.787045e-01
  1.983857e-01
  6.451937e-02
  3.188875e-02
  2.354055e-02
  2.161443e-02
  2.360755e-02
  3.126960e-02
  4.577732e-02
  5.923435e-02
  6.063680e-02
  5.051747e-02
  4.088936e-02
  3.650212e-02
  3.420581e-02
  3.197136e-02
  3.210132e-02
  4.762138e-02
  1.215130e-01
  3.501004e-01
  7.049370e-01
  8.896302e-01
  9.412212e-01
  9.331550e-01
  8.940626e-01
  8.389799e-01
  7.790414e-01
  6.868703e-01
  5.158132e-01
  3.100583e-01
  1.621784e-01
  7.682143e-02
  4.001047e-02
  2.869915e-02
  3.150054e-02
  5.530182e-02
  1.265940e-01
  2.271324e-01
  2.763637e-01
  2.373003e-01
  1.376936e-01
  6.862415e-02
  5.015720e-02
  7.476916e-02
  2.226924e-01
  6.662312e-01
  8.942544e-01
  9.371876e-01
  8.757298e-01
  6.311543e-01
  2.191286e-01
  6.324707e-02
  3.106215e-02
  3.667075e-02
  9.187969e-02
  3.161429e-01
  8.979362e-01
  9.752943e-01
  9.823329e-01
  9.615304e-01
  9.142298e-01
  8.309634e-01
  6.972943e-01
  4.620058e-01
  2.205293e-01
  8.435999e-02
  4.118536e-02
  2.950574e-02
  2.577094e-02
  2.426540e-02
  2.431901e-02
  2.677003e-02
  3.284094e-02
  4.246937e-02
  5.335646e-02
  6.308096e-02
  7.155424e-02
  7.753717e-02
  7.702871e-02
  6.676156e-02
  4.980265e-02
  3.943535e-02
  5.336302e-02
  1.275841e-01
  3.432490e-01
  6.843746e-01
  8.791448e-01
  9.475154e-01
  9.645686e-01
  9.632185e-01
  9.539517e-01
  9.320666e-01
  8.789782e-01
  7.594006e-01
  5.090504e-01
  2.268744e-01
  8.342538e-02
  4.313654e-02
  5.206584e-02
  1.335414e-01
  4.121624e-01
  7.130033e-01
  7.980072e-01
  7.091389e-01
  3.954041e-01
  1.306588e-01
  6.316267e-02
  9.193720e-02
  3.056311e-01
  8.124913e-01
  9.678186e-01
  9.923814e-01
  9.672927e-01
  8.347357e-01
  4.073776e-01
  1.068586e-01
  4.267216e-02
  5.621367e-02
  1.747316e-01
  5.976623e-01
  9.374765e-01
  9.716778e-01
  9.389430e-01
  8.392100e-01
  6.475929e-01
  3.918941e-01
  2.250515e-01
  1.318087e-01
  8.000679e-02
  6.076990e-02
  5.887227e-02
  6.046350e-02
  6.102342e-02
  6.078800e-02
  6.193534e-02
  6.849121e-02
  8.724471e-02
  1.249663e-01
  1.764529e-01
  2.273368e-01
  2.701610e-01
  2.967947e-01
  2.912144e-01
  2.377021e-01
  1.434158e-01
  6.676997e-02
  4.160246e-02
  5.167396e-02
  1.164916e-01
  3.038107e-01
  6.325094e-01
  8.537287e-01
  9.448370e-01
  9.767157e-01
  9.865943e-01
  9.867624e-01
  9.770072e-01
  9.449953e-01
  8.459771e-01
  5.797156e-01
  2.165273e-01
  8.066527e-02
  8.374942e-02
  2.445616e-01
  7.195550e-01
  9.322853e-01
  9.716617e-01
  9.198563e-01
  6.655118e-01
  2.061471e-01
  7.600735e-02
  9.846449e-02
  3.370905e-01
  8.470439e-01
  9.797106e-01
  9.999000e-01
  9.886667e-01
  9.150442e-01
  6.070973e-01
  1.615771e-01
  5.554506e-02
  7.110436e-02
  2.276453e-01
  7.164967e-01
  8.400730e-01
  8.575396e-01
  7.367986e-01
  4.618975e-01
  2.181866e-01
  1.047704e-01
  6.870470e-02
  7.499994e-02
  1.124371e-01
  1.699273e-01
  2.175069e-01
  2.445614e-01
  2.557563e-01
  2.598440e-01
  2.676434e-01
  2.955833e-01
  3.703526e-01
  5.105422e-01
  6.616685e-01
  7.583401e-01
  8.091567e-01
  8.318295e-01
  8.220486e-01
  7.338855e-01
  4.630926e-01
  1.580309e-01
  5.765283e-02
  3.526043e-02
  4.357361e-02
  9.468346e-02
  2.442726e-01
  5.442030e-01
  8.092924e-01
  9.328414e-01
  9.782768e-01
  9.937151e-01
  9.975154e-01
  9.917806e-01
  9.609573e-01
  8.331312e-01
  4.440847e-01
  1.439283e-01
  1.109704e-01
  2.992935e-01
  8.020845e-01
  9.707817e-01
  9.958978e-01
  9.483019e-01
  7.117054e-01
  2.184955e-01
  7.435870e-02
  9.149720e-02
  3.215181e-01
  8.406176e-01
  9.765229e-01
  9.986451e-01
  9.927564e-01
  9.445031e-01
  7.191458e-01
  2.025050e-01
  6.250587e-02
  6.790311e-02
  1.949892e-01
  6.019898e-01
  4.289111e-01
  4.192985e-01
  2.750638e-01
  1.363485e-01
  6.383872e-02
  4.669311e-02
  8.095812e-02
  1.971405e-01
  4.001896e-01
  6.253396e-01
  7.465206e-01
  7.907249e-01
  8.032149e-01
  8.051036e-01
  8.069731e-01
  8.174382e-01
  8.437149e-01
  8.846847e-01
  9.246562e-01
  9.516573e-01
  9.680656e-01
  9.773956e-01
  9.762288e-01
  9.391677e-01
  7.591918e-01
  2.826020e-01
  8.418313e-02
  3.627947e-02
  2.603796e-02
  3.298529e-02
  7.026896e-02
  1.829765e-01
  4.404311e-01
  7.550116e-01
  9.161208e-01
  9.753729e-01
  9.954645e-01
  9.999000e-01
  9.896431e-01
  9.180747e-01
  6.162646e-01
  1.960778e-01
  1.136538e-01
  2.520211e-01
  7.026883e-01
  9.128265e-01
  9.446407e-01
  8.601694e-01
  5.427687e-01
  1.581477e-01
  5.792673e-02
  7.645505e-02
  2.812682e-01
  8.150761e-01
  9.681375e-01
  9.949717e-01
  9.918609e-01
  9.528113e-01
  7.591496e-01
  2.195994e-01
  6.100807e-02
  5.011293e-02
  1.049606e-01
  2.654922e-01
  1.311575e-01
  1.236142e-01
  8.323736e-02
  4.916088e-02
  3.905274e-02
  7.112270e-02
  2.240481e-01
  5.757601e-01
  8.212927e-01
  9.191041e-01
  9.530670e-01
  9.625325e-01
  9.629811e-01
  9.601588e-01
  9.569191e-01
  9.559804e-01
  9.595095e-01
  9.675025e-01
  9.772008e-01
  9.860934e-01
  9.937130e-01
  9.995851e-01
  9.999000e-01
  9.757421e-01
  8.320261e-01
  3.359575e-01
  9.647378e-02
  3.811079e-02
  2.256587e-02
  1.823006e-02
  2.334071e-02
  5.031818e-02
  1.365568e-01
  3.575266e-01
  6.950313e-01
  8.864987e-01
  9.593811e-01
  9.818775e-01
  9.749719e-01
  8.982597e-01
  5.866733e-01
  1.836932e-01
  8.883704e-02
  1.401640e-01
  3.739544e-01
  6.403080e-01
  6.966343e-01
  5.358866e-01
  2.417657e-01
  8.013591e-02
  3.921392e-02
  6.076800e-02
  2.349783e-01
  7.715914e-01
  9.555454e-01
  9.905356e-01
  9.895321e-01
  9.528777e-01
  7.663719e-01
  2.193198e-01
  5.474041e-02
  3.448600e-02
  5.214362e-02
  9.326502e-02
  5.158394e-02
  4.952508e-02
  4.028225e-02
  3.494444e-02
  4.867355e-02
  1.368701e-01
  4.822675e-01
  8.488399e-01
  9.626551e-01
  9.900565e-01
  9.950053e-01
  9.925601e-01
  9.862262e-01
  9.765257e-01
  9.643313e-01
  9.540654e-01
  9.494539e-01
  9.509390e-01
  9.567675e-01
  9.646514e-01
  9.726163e-01
  9.781892e-01
  9.744975e-01
  9.336393e-01
  7.460956e-01
  2.741647e-01
  8.256771e-02
  3.534075e-02
  2.130727e-02
  1.500439e-02
  1.265723e-02
  1.684702e-02
  3.790508e-02
  1.055128e-01
  2.808166e-01
  5.789708e-01
  7.837904e-01
  8.577779e-01
  8.480356e-01
  7.130214e-01
  3.567626e-01
  1.187998e-01
  6.050156e-02
  6.706901e-02
  1.208870e-01
  1.931992e-01
  2.115393e-01
  1.582524e-01
  8.251089e-02
  4.090637e-02
  2.885550e-02
  4.840043e-02
  1.879499e-01
  6.939350e-01
  9.349886e-01
  9.852803e-01
  9.871184e-01
  9.507409e-01
  7.642485e-01
  2.147023e-01
  4.789329e-02
  2.365537e-02
  2.960887e-02
  4.230222e-02
  3.178817e-02
  3.287394e-02
  3.200209e-02
  3.523241e-02
  6.094071e-02
  1.914542e-01
  6.507179e-01
  9.294425e-01
  9.921010e-01
  9.999000e-01
  9.952228e-01
  9.822374e-01
  9.583292e-01
  9.183586e-01
  8.615404e-01
  8.117734e-01
  7.858473e-01
  7.826622e-01
  7.945461e-01
  8.131373e-01
  8.308424e-01
  8.389860e-01
  8.196916e-01
  7.199587e-01
  4.392377e-01
  1.506774e-01
  5.619920e-02
  3.040062e-02
  2.081656e-02
  1.539734e-02
  1.230719e-02
  1.212866e-02
  1.725238e-02
  3.476765e-02
  8.114315e-02
  1.752098e-01
  2.923143e-01
  3.791566e-01
  3.745943e-01
  2.699287e-01
  1.348372e-01
  6.371945e-02
  4.273991e-02
  4.137816e-02
  5.096466e-02
  6.481138e-02
  6.996356e-02
  6.118428e-02
  4.598680e-02
  3.415215e-02
  2.836466e-02
  4.079934e-02
  1.401409e-01
  5.564140e-01
  8.979401e-01
  9.776483e-01
  9.850335e-01
  9.502101e-01
  7.698830e-01
  2.254022e-01
  4.650037e-02
  1.741552e-02
  1.953911e-02
  2.663405e-02
  3.018664e-02
  3.138530e-02
  3.163338e-02
  3.606538e-02
  6.076855e-02
  1.789938e-01
  5.976505e-01
  8.952394e-01
  9.678180e-01
  9.733844e-01
  9.533808e-01
  9.024455e-01
  8.046495e-01
  6.459839e-01
  4.363308e-01
  2.963388e-01
  2.432712e-01
  2.361751e-01
  2.515780e-01
  2.779102e-01
  3.045935e-01
  3.171675e-01
  2.984252e-01
  2.359922e-01
  1.399391e-01
  6.697216e-02
  3.942474e-02
  3.035199e-02
  2.657232e-02
  2.501966e-02
  2.619618e-02
  3.030880e-02
  3.663861e-02
  4.558224e-02
  5.948101e-02
  8.032875e-02
  1.027621e-01
  1.167018e-01
  1.110241e-01
  8.578769e-02
  5.700833e-02
  4.061596e-02
  3.456425e-02
  3.379775e-02
  3.742578e-02
  4.695255e-02
  6.185964e-02
  7.383179e-02
  7.479518e-02
  6.397834e-02
  4.757055e-02
  4.342968e-02
  1.001784e-01
  3.826145e-01
  8.306700e-01
  9.617701e-01
  9.815001e-01
  9.534102e-01
  7.993759e-01
  2.930662e-01
  6.793852e-02
  2.272179e-02
  2.041478e-02
  2.589885e-02
  5.741961e-02
  4.803145e-02
  3.858566e-02
  3.678762e-02
  4.967661e-02
  1.115356e-01
  3.360986e-01
  6.700249e-01
  8.038980e-01
  8.132346e-01
  7.452430e-01
  5.738876e-01
  3.378556e-01
  1.840912e-01
  1.012926e-01
  6.382317e-02
  5.339623e-02
  5.719477e-02
  6.843901e-02
  8.138234e-02
  9.045243e-02
  9.230420e-02
  8.656610e-02
  7.321183e-02
  5.540777e-02
  4.324720e-02
  4.270926e-02
  5.232891e-02
  6.615656e-02
  8.383903e-02
  1.103687e-01
  1.438629e-01
  1.745840e-01
  1.961155e-01
  2.039193e-01
  1.901029e-01
  1.491551e-01
  9.925593e-02
  6.433555e-02
  4.600329e-02
  3.682552e-02
  3.261585e-02
  3.135942e-02
  3.352643e-02
  4.538507e-02
  8.458920e-02
  1.634742e-01
  2.382741e-01
  2.626722e-01
  2.255625e-01
  1.444991e-01
  7.697236e-02
  8.155717e-02
  2.416506e-01
  6.884960e-01
  9.116994e-01
  9.649112e-01
  9.552718e-01
  8.567360e-01
  4.934235e-01
  1.733897e-01
  7.695963e-02
  5.934508e-02
  5.967027e-02
  2.082970e-01
  1.371408e-01
  7.184856e-02
  4.395785e-02
  4.083369e-02
  5.875762e-02
  1.178595e-01
  2.183658e-01
  2.825203e-01
  2.800074e-01
  2.261805e-01
  1.494786e-01
  8.090637e-02
  4.219558e-02
  2.437419e-02
  1.954782e-02
  2.521069e-02
  4.251351e-02
  6.822122e-02
  8.742834e-02
  8.677442e-02
  6.916816e-02
  5.292938e-02
  4.476544e-02
  4.254365e-02
  5.092375e-02
  8.700919e-02
  1.677059e-01
  2.603196e-01
  3.583143e-01
  4.822179e-01
  6.097706e-01
  6.959915e-01
  7.364342e-01
  7.360134e-01
  6.744824e-01
  5.067121e-01
  2.782881e-01
  1.181233e-01
  5.272413e-02
  3.452867e-02
  3.044128e-02
  3.121421e-02
  4.043190e-02
  8.413758e-02
  2.458892e-01
  5.480949e-01
  7.463144e-01
  7.930270e-01
  7.266169e-01
  4.926663e-01
  1.999528e-01
  9.174936e-02
  1.370085e-01
  3.967186e-01
  7.352274e-01
  8.831126e-01
  9.239221e-01
  9.002194e-01
  7.635851e-01
  5.086734e-01
  3.285650e-01
  2.679104e-01
  2.464753e-01
  7.036651e-01
  4.694715e-01
  1.919850e-01
  7.078840e-02
  4.078171e-02
  3.939456e-02
  5.103349e-02
  6.967261e-02
  8.039351e-02
  7.584234e-02
  5.994735e-02
  4.066302e-02
  2.484450e-02
  1.606161e-02
  1.387083e-02
  2.049747e-02
  4.737992e-02
  1.184094e-01
  2.230290e-01
  2.858762e-01
  2.566953e-01
  1.538001e-01
  7.556721e-02
  4.978645e-02
  5.115073e-02
  9.032340e-02
  2.449565e-01
  5.594045e-01
  7.650060e-01
  8.449266e-01
  8.869297e-01
  9.179907e-01
  9.383243e-01
  9.486821e-01
  9.491916e-01
  9.318869e-01
  8.681901e-01
  6.826547e-01
  3.151691e-01
  9.813080e-02
  4.231276e-02
  3.154558e-02
  3.365573e-02
  5.594610e-02
  1.667732e-01
  5.560570e-01
  8.592237e-01
  9.521268e-01
  9.685966e-01
  9.434178e-01
  8.137826e-01
  4.233915e-01
  1.318021e-01
  8.027913e-02
  1.474283e-01
  3.279772e-01
  5.742731e-01
  7.453598e-01
  8.387401e-01
  8.725439e-01
  8.490072e-01
  8.179449e-01
  8.051318e-01
  7.864416e-01
  9.357445e-01
  8.075180e-01
  4.323466e-01
  1.269641e-01
  4.979794e-02
  3.758902e-02
  4.009021e-02
  4.414686e-02
  4.383092e-02
  3.810160e-02
  2.999374e-02
  2.236268e-02
  1.666557e-02
  1.410228e-02
  1.766152e-02
  4.094057e-02
  1.360043e-01
  4.031446e-01
  7.012256e-01
  7.998264e-01
  7.292630e-01
  4.280154e-01
  1.448250e-01
  6.656672e-02
  6.756463e-02
  1.567012e-01
  5.009200e-01
  8.482225e-01
  9.525288e-01
  9.763662e-01
  9.825567e-01
  9.860066e-01
  9.889931e-01
  9.915628e-01
  9.929351e-01
  9.901956e-01
  9.728558e-01
  8.942310e-01
  6.064999e-01
  1.792742e-01
  5.779210e-02
  3.482681e-02
  3.725149e-02
  7.277736e-02
  2.487080e-01
  7.565058e-01
  9.543137e-01
  9.961615e-01
  9.999000e-01
  9.895745e-01
  9.130808e-01
  5.856413e-01
  1.668911e-01
  6.119131e-02
  5.613266e-02
  9.247636e-02
  1.655098e-01
  2.907866e-01
  5.314747e-01
  7.891167e-01
  9.127362e-01
  9.509323e-01
  9.636562e-01
  9.641410e-01
  9.880323e-01
  9.198953e-01
  6.356792e-01
  1.893819e-01
  7.004611e-02
  5.880539e-02
  6.947557e-02
  7.555255e-02
  6.743580e-02
  4.866974e-02
  3.227101e-02
  2.276411e-02
  1.757754e-02
  1.651728e-02
  2.684268e-02
  8.593512e-02
  3.310723e-01
  7.546930e-01
  9.299780e-01
  9.661541e-01
  9.162600e-01
  6.593453e-01
  2.095354e-01
  7.892261e-02
  7.580140e-02
  1.903463e-01
  6.133980e-01
  9.142471e-01
  9.852043e-01
  9.961932e-01
  9.955218e-01
  9.941298e-01
  9.944323e-01
  9.964543e-01
  9.989878e-01
  9.999000e-01
  9.959568e-01
  9.559337e-01
  7.575966e-01
  2.436616e-01
  7.156095e-02
  3.827055e-02
  3.989985e-02
  8.046321e-02
  2.789401e-01
  8.009836e-01
  9.694050e-01
  9.999000e-01
  9.999000e-01
  9.877599e-01
  9.054261e-01
  5.617664e-01
  1.557737e-01
  5.104051e-02
  3.177840e-02
  3.280876e-02
  4.459003e-02
  7.966656e-02
  1.977221e-01
  5.183641e-01
  8.463202e-01
  9.596870e-01
  9.908493e-01
  9.983743e-01
  9.867634e-01
  9.238872e-01
  6.671315e-01
  2.277234e-01
  1.295434e-01
  1.727745e-01
  2.369191e-01
  2.603440e-01
  2.169209e-01
  1.249906e-01
  5.641891e-02
  2.974203e-02
  2.026304e-02
  1.966251e-02
  4.038149e-02
  1.574200e-01
  5.887569e-01
  9.024053e-01
  9.829282e-01
  9.885285e-01
  9.267199e-01
  6.513610e-01
  1.980776e-01
  7.190675e-02
  6.562014e-02
  1.516788e-01
  4.863353e-01
  8.372691e-01
  9.448974e-01
  9.673036e-01
  9.694108e-01
  9.697836e-01
  9.740824e-01
  9.822946e-01
  9.907813e-01
  9.962462e-01
  9.937952e-01
  9.553299e-01
  7.616317e-01
  2.494542e-01
  7.455564e-02
  4.042950e-02
  4.105117e-02
  7.493734e-02
  2.394294e-01
  7.202282e-01
  9.301859e-01
  9.762397e-01
  9.760448e-01
  9.415126e-01
  7.936619e-01
  3.766318e-01
  1.076412e-01
  4.083585e-02
  2.569807e-02
  2.120215e-02
  2.041150e-02
  2.810409e-02
  7.068598e-02
  2.414504e-01
  6.544990e-01
  9.039141e-01
  9.778176e-01
  9.952220e-01
  9.260261e-01
  8.190751e-01
  5.239638e-01
  2.533312e-01
  3.284624e-01
  5.786186e-01
  7.477611e-01
  7.847878e-01
  6.891672e-01
  3.934214e-01
  1.270810e-01
  4.482885e-02
  2.380582e-02
  2.302987e-02
  5.729004e-02
  2.395891e-01
  7.505402e-01
  9.488583e-01
  9.848662e-01
  9.609389e-01
  8.304402e-01
  4.397497e-01
  1.274957e-01
  5.205078e-02
  4.717976e-02
  8.474157e-02
  2.291668e-01
  5.247828e-01
  7.294767e-01
  7.972711e-01
  8.153102e-01
  8.295149e-01
  8.589656e-01
  9.018422e-01
  9.382541e-01
  9.565496e-01
  9.496950e-01
  8.775735e-01
  6.086095e-01
  1.899716e-01
  6.649593e-02
  4.425551e-02
  4.610415e-02
  6.593134e-02
  1.538127e-01
  4.496415e-01
  7.388360e-01
  8.338693e-01
  8.315198e-01
  7.414020e-01
  4.841674e-01
  1.840589e-01
  6.825766e-02
  3.767148e-02
  2.762286e-02
  2.191898e-02
  1.835262e-02
  1.870170e-02
  3.278820e-02
  1.000483e-01
  3.343928e-01
  7.125060e-01
  8.925815e-01
  9.423636e-01
  6.575074e-01
  4.680979e-01
  2.659426e-01
  2.737341e-01
  6.256986e-01
  8.704601e-01
  9.511731e-01
  9.655122e-01
  9.217801e-01
  7.091548e-01
  2.326255e-01
  6.503277e-02
  2.748300e-02
  2.750742e-02
  8.267692e-02
  3.483902e-01
  8.276861e-01
  9.581801e-01
  9.597214e-01
  8.668701e-01
  5.770452e-01
  2.032036e-01
  6.469076e-02
  3.577159e-02
  3.491672e-02
  4.638495e-02
  8.129198e-02
  1.521445e-01
  2.195049e-01
  2.550899e-01
  2.743836e-01
  3.099348e-01
  4.002790e-01
  5.551103e-01
  6.928698e-01
  7.563111e-01
  7.368924e-01
  5.839041e-01
  2.913216e-01
  1.068869e-01
  6.314775e-02
  6.884348e-02
  8.255059e-02
  9.083163e-02
  1.068709e-01
  1.717241e-01
  2.699837e-01
  3.294765e-01
  3.238646e-01
  2.614343e-01
  1.702851e-01
  1.022320e-01
  7.697784e-02
  6.365765e-02
  4.765148e-02
  3.222989e-02
  2.305804e-02
  1.966860e-02
  2.299966e-02
  4.417992e-02
  1.207455e-01
  3.131187e-01
  5.706435e-01
  6.953799e-01
  1.858492e-01
  1.369150e-01
  1.229638e-01
  2.820316e-01
  7.702611e-01
  9.529759e-01
  9.945514e-01
  9.999000e-01
  9.750770e-01
  8.212673e-01
  2.967318e-01
  7.686112e-02
  2.959719e-02
  3.518705e-02
  1.273884e-01
  5.112015e-01
  8.771156e-01
  9.487387e-01
  8.883965e-01
  6.335598e-01
  2.499792e-01
  7.825862e-02
  3.583161e-02
  3.125087e-02
  3.394231e-02
  3.677741e-02
  4.151927e-02
  5.098431e-02
  5.980999e-02
  6.344639e-02
  6.492030e-02
  7.171010e-02
  9.355597e-02
  1.364963e-01
  1.875779e-01
  2.226938e-01
  2.203572e-01
  1.703856e-01
  1.008422e-01
  7.256842e-02
  1.069891e-01
  1.960478e-01
  2.659184e-01
  2.660820e-01
  1.990194e-01
  1.232603e-01
  9.833085e-02
  9.678749e-02
  9.551702e-02
  9.724297e-02
  1.246533e-01
  1.855070e-01
  2.278639e-01
  2.136309e-01
  1.468689e-01
  7.425121e-02
  3.697874e-02
  2.463754e-02
  2.253046e-02
  2.776898e-02
  4.685015e-02
  9.235038e-02
  1.590661e-01
  1.994836e-01
  5.492760e-02
  5.100126e-02
  8.161709e-02
  2.739340e-01
  7.991673e-01
  9.683478e-01
  9.999000e-01
  9.999000e-01
  9.751614e-01
  8.181420e-01
  2.884189e-01
  7.307147e-02
  3.012312e-02
  5.013922e-02
  2.015217e-01
  6.770090e-01
  9.094597e-01
  9.161218e-01
  7.304043e-01
  3.097369e-01
  9.260407e-02
  3.829937e-02
  3.732372e-02
  5.074155e-02
  5.912014e-02
  5.468317e-02
  4.331786e-02
  3.526599e-02
  3.129644e-02
  2.875540e-02
  2.717049e-02
  2.764537e-02
  3.171537e-02
  4.018430e-02
  5.093497e-02
  5.943578e-02
  6.130019e-02
  5.602210e-02
  5.558488e-02
  9.950569e-02
  2.888985e-01
  6.163550e-01
  7.741034e-01
  7.640170e-01
  5.763793e-01
  2.464819e-01
  8.948559e-02
  5.229532e-02
  5.506892e-02
  1.045321e-01
  2.881554e-01
  5.812004e-01
  7.299311e-01
  7.099515e-01
  5.141677e-01
  2.270788e-01
  7.618193e-02
  3.453761e-02
  2.549684e-02
  2.546712e-02
  3.005069e-02
  3.944666e-02
  5.148811e-02
  5.799056e-02
  3.178019e-02
  3.386338e-02
  6.547345e-02
  2.328949e-01
  7.406098e-01
  9.489430e-01
  9.927786e-01
  9.898338e-01
  9.383974e-01
  7.128811e-01
  2.192642e-01
  5.760030e-02
  3.335868e-02
  8.600709e-02
  3.386825e-01
  7.943476e-01
  9.226033e-01
  8.523655e-01
  4.847152e-01
  1.387569e-01
  4.601082e-02
  4.613868e-02
  9.338579e-02
  1.633507e-01
  1.954491e-01
  1.605476e-01
  9.188399e-02
  4.823969e-02
  3.234148e-02
  2.751622e-02
  2.707346e-02
  2.952633e-02
  3.319120e-02
  3.543626e-02
  3.519364e-02
  3.353809e-02
  3.247077e-02
  3.500628e-02
  5.600559e-02
  1.676652e-01
  5.766008e-01
  8.810408e-01
  9.613405e-01
  9.552651e-01
  8.480257e-01
  4.806228e-01
  1.372368e-01
  5.502813e-02
  6.384339e-02
  1.852339e-01
  6.017901e-01
  8.756607e-01
  9.495825e-01
  9.434753e-01
  8.469604e-01
  5.311762e-01
  1.551253e-01
  5.094188e-02
  3.058979e-02
  2.906570e-02
  3.222934e-02
  3.561338e-02
  3.685651e-02
  3.497868e-02
  3.788752e-02
  3.234672e-02
  5.037498e-02
  1.543986e-01
  5.278348e-01
  8.382536e-01
  9.288078e-01
  9.157169e-01
  7.881609e-01
  4.365241e-01
  1.235312e-01
  4.217598e-02
  5.192279e-02
  1.787876e-01
  5.783861e-01
  8.797160e-01
  9.223927e-01
  7.666199e-01
  2.858634e-01
  7.553187e-02
  4.876378e-02
  1.169706e-01
  3.256857e-01
  5.865936e-01
  6.756478e-01
  5.556435e-01
  2.795367e-01
  9.745090e-02
  4.472710e-02
  3.443708e-02
  3.903227e-02
  5.545793e-02
  7.508899e-02
  8.104817e-02
  6.862537e-02
  4.816715e-02
  3.429314e-02
  3.355796e-02
  6.196813e-02
  2.149574e-01
  7.221225e-01
  9.516540e-01
  9.999000e-01
  9.967894e-01
  9.321710e-01
  6.484274e-01
  1.839694e-01
  6.477653e-02
  7.924704e-02