# vtk DataFile Version 2.0
time_10.vtk
ASCII
DATASET STRUCTURED_GRID
DIMENSIONS    64    64     1
POINTS    4096 float
  0.000000e+00   0.000000e+00   0.000000e+00
  0.000000e+00   1.000000e+00   0.000000e+00
  0.000000e+00   2.000000e+00   0.000000e+00
  0.000000e+00   3.000000e+00   0.000000e+00
  0.000000e+00   4.000000e+00   0.000000e+00
  0.000000e+00   5.000000e+00   0.000000e+00
  0.000000e+00   6.000000e+00   0.000000e+00
  0.000000e+00   7.000000e+00   0.000000e+00
  0.000000e+00   8.000000e+00   0.000000e+00
  0.000000e+00   9.000000e+00   0.000000e+00
  0.000000e+00   1.000000e+01   0.000000e+00
  0.000000e+00   1.100000e+01   0.000000e+00
  0.000000e+00   1.200000e+01   0.000000e+00
  0.000000e+00   1.300000e+01   0.000000e+00
  0.000000e+00   1.400000e+01   0.000000e+00
  0.000000e+00   1.500000e+01   0.000000e+00
  0.000000e+00   1.600000e+01   0.000000e+00
  0.000000e+00   1.700000e+01   0.000000e+00
  0.000000e+00   1.800000e+01   0.000000e+00
  0.000000e+00   1.900000e+01   0.000000e+00
  0.000000e+00   2.000000e+01   0.000000e+00
  0.000000e+00   2.100000e+01   0.000000e+00
  0.000000e+00   2.200000e+01   0.000000e+00
  0.000000e+00   2.300000e+01   0.000000e+00
  0.000000e+00   2.400000e+01   0.000000e+00
  0.000000e+00   2.500000e+01   0.000000e+00
  0.000000e+00   2.600000e+01   0.000000e+00
  0.000000e+00   2.700000e+01   0.000000e+00
  0.000000e+00   2.800000e+01   0.000000e+00
  0.000000e+00   2.900000e+01   0.000000e+00
  0.000000e+00   3.000000e+01   0.000000e+00
  0.000000e+00   3.100000e+01   0.000000e+00
  0.000000e+00   3.200000e+01   0.000000e+00
  0.000000e+00   3.300000e+01   0.000000e+00
  0.000000e+00   3.400000e+01   0.000000e+00
  0.000000e+00   3.500000e+01   0.000000e+00
  0.000000e+00   3.600000e+01   0.000000e+00
  0.000000e+00   3.700000e+01   0.000000e+00
  0.000000e+00   3.800000e+01   0.000000e+00
  0.000000e+00   3.900000e+01   0.000000e+00
  0.000000e+00   4.000000e+01   0.000000e+00
  0.000000e+00   4.100000e+01   0.000000e+00
  0.000000e+00   4.200000e+01   0.000000e+00
  0.000000e+00   4.300000e+01   0.000000e+00
  0.000000e+00   4.400000e+01   0.000000e+00
  0.000000e+00   4.500000e+01   0.000000e+00
  0.000000e+00   4.600000e+01   0.000000e+00
  0.000000e+00   4.700000e+01   0.000000e+00
  0.000000e+00   4.800000e+01   0.000000e+00
  0.000000e+00   4.900000e+01   0.000000e+00
  0.000000e+00   5.000000e+01   0.000000e+00
  0.000000e+00   5.100000e+01   0.000000e+00
  0.000000e+00   5.200000e+01   0.000000e+00
  0.000000e+00   5.300000e+01   0.000000e+00
  0.000000e+00   5.400000e+01   0.000000e+00
  0.000000e+00   5.500000e+01   0.000000e+00
  0.000000e+00   5.600000e+01   0.000000e+00
  0.000000e+00   5.700000e+01   0.000000e+00
  0.000000e+00   5.800000e+01   0.000000e+00
  0.000000e+00   5.900000e+01   0.000000e+00
  0.000000e+00   6.000000e+01   0.000000e+00
  0.000000e+00   6.100000e+01   0.000000e+00
  0.000000e+00   6.200000e+01   0.000000e+00
  0.000000e+00   6.300000e+01   0.000000e+00
  1.000000e+00   0.000000e+00   0.000000e+00
  1.000000e+00   1.000000e+00   0.000000e+00
  1.000000e+00   2.000000e+00   0.000000e+00
  1.000000e+00   3.000000e+00   0.000000e+00
  1.000000e+00   4.000000e+00   0.000000e+00
  1.000000e+00   5.000000e+00   0.000000e+00
  1.000000e+00   6.000000e+00   0.000000e+00
  1.000000e+00   7.000000e+00   0.000000e+00
  1.000000e+00   8.000000e+00   0.000000e+00
  1.000000e+00   9.000000e+00   0.000000e+00
  1.000000e+00   1.000000e+01   0.000000e+00
  1.000000e+00   1.100000e+01   0.000000e+00
  1.000000e+00   1.200000e+01   0.000000e+00
  1.000000e+00   1.300000e+01   0.000000e+00
  1.000000e+00   1.400000e+01   0.000000e+00
  1.000000e+00   1.500000e+01   0.000000e+00
  1.000000e+00   1.600000e+01   0.000000e+00
  1.000000e+00   1.700000e+01   0.000000e+00
  1.000000e+00   1.800000e+01   0.000000e+00
  1.000000e+00   1.900000e+01   0.000000e+00
  1.000000e+00   2.000000e+01   0.000000e+00
  1.000000e+00   2.100000e+01   0.000000e+00
  1.000000e+00   2.200000e+01   0.000000e+00
  1.000000e+00   2.300000e+01   0.000000e+00
  1.000000e+00   2.400000e+01   0.000000e+00
  1.000000e+00   2.500000e+01   0.000000e+00
  1.000000e+00   2.600000e+01   0.000000e+00
  1.000000e+00   2.700000e+01   0.000000e+00
  1.000000e+00   2.800000e+01   0.000000e+00
  1.000000e+00   2.900000e+01   0.000000e+00
  1.000000e+00   3.000000e+01   0.000000e+00
  1.000000e+00   3.100000e+01   0.000000e+00
  1.000000e+00   3.200000e+01   0.000000e+00
  1.000000e+00   3.300000e+01   0.000000e+00
  1.000000e+00   3.400000e+01   0.000000e+00
  1.000000e+00   3.500000e+01   0.000000e+00
  1.000000e+00   3.600000e+01   0.000000e+00
  1.000000e+00   3.700000e+01   0.000000e+00
  1.000000e+00   3.800000e+01   0.000000e+00
  1.000000e+00   3.900000e+01   0.000000e+00
  1.000000e+00   4.000000e+01   0.000000e+00
  1.000000e+00   4.100000e+01   0.000000e+00
  1.000000e+00   4.200000e+01   0.000000e+00
  1.000000e+00   4.300000e+01   0.000000e+00
  1.000000e+00   4.400000e+01   0.000000e+00
  1.000000e+00   4.500000e+01   0.000000e+00
  1.000000e+00   4.600000e+01   0.000000e+00
  1.000000e+00   4.700000e+01   0.000000e+00
  1.000000e+00   4.800000e+01   0.000000e+00
  1.000000e+00   4.900000e+01   0.000000e+00
  1.000000e+00   5.000000e+01   0.000000e+00
  1.000000e+00   5.100000e+01   0.000000e+00
  1.000000e+00   5.200000e+01   0.000000e+00
  1.000000e+00   5.300000e+01   0.000000e+00
  1.000000e+00   5.400000e+01   0.000000e+00
  1.000000e+00   5.500000e+01   0.000000e+00
  1.000000e+00   5.600000e+01   0.000000e+00
  1.000000e+00   5.700000e+01   0.000000e+00
  1.000000e+00   5.800000e+01   0.000000e+00
  1.000000e+00   5.900000e+01   0.000000e+00
  1.000000e+00   6.000000e+01   0.000000e+00
  1.000000e+00   6.100000e+01   0.000000e+00
  1.000000e+00   6.200000e+01   0.000000e+00
  1.000000e+00   6.300000e+01   0.000000e+00
  2.000000e+00   0.000000e+00   0.000000e+00
  2.000000e+00   1.000000e+00   0.000000e+00
  2.000000e+00   2.000000e+00   0.000000e+00
  2.000000e+00   3.000000e+00   0.000000e+00
  2.000000e+00   4.000000e+00   0.000000e+00
  2.000000e+00   5.000000e+00   0.000000e+00
  2.000000e+00   6.000000e+00   0.000000e+00
  2.000000e+00   7.000000e+00   0.000000e+00
  2.000000e+00   8.000000e+00   0.000000e+00
  2.000000e+00   9.000000e+00   0.000000e+00
  2.000000e+00   1.000000e+01   0.000000e+00
  2.000000e+00   1.100000e+01   0.000000e+00
  2.000000e+00   1.200000e+01   0.000000e+00
  2.000000e+00   1.300000e+01   0.000000e+00
  2.000000e+00   1.400000e+01   0.000000e+00
  2.000000e+00   1.500000e+01   0.000000e+00
  2.000000e+00   1.600000e+01   0.000000e+00
  2.000000e+00   1.700000e+01   0.000000e+00
  2.000000e+00   1.800000e+01   0.000000e+00
  2.000000e+00   1.900000e+01   0.000000e+00
  2.000000e+00   2.000000e+01   0.000000e+00
  2.000000e+00   2.100000e+01   0.000000e+00
  2.000000e+00   2.200000e+01   0.000000e+00
  2.000000e+00   2.300000e+01   0.000000e+00
  2.000000e+00   2.400000e+01   0.000000e+00
  2.000000e+00   2.500000e+01   0.000000e+00
  2.000000e+00   2.600000e+01   0.000000e+00
  2.000000e+00   2.700000e+01   0.000000e+00
  2.000000e+00   2.800000e+01   0.000000e+00
  2.000000e+00   2.900000e+01   0.000000e+00
  2.000000e+00   3.000000e+01   0.000000e+00
  2.000000e+00   3.100000e+01   0.000000e+00
  2.000000e+00   3.200000e+01   0.000000e+00
  2.000000e+00   3.300000e+01   0.000000e+00
  2.000000e+00   3.400000e+01   0.000000e+00
  2.000000e+00   3.500000e+01   0.000000e+00
  2.000000e+00   3.600000e+01   0.000000e+00
  2.000000e+00   3.700000e+01   0.000000e+00
  2.000000e+00   3.800000e+01   0.000000e+00
  2.000000e+00   3.900000e+01   0.000000e+00
  2.000000e+00   4.000000e+01   0.000000e+00
  2.000000e+00   4.100000e+01   0.000000e+00
  2.000000e+00   4.200000e+01   0.000000e+00
  2.000000e+00   4.300000e+01   0.000000e+00
  2.000000e+00   4.400000e+01   0.000000e+00
  2.000000e+00   4.500000e+01   0.000000e+00
  2.000000e+00   4.600000e+01   0.000000e+00
  2.000000e+00   4.700000e+01   0.000000e+00
  2.000000e+00   4.800000e+01   0.000000e+00
  2.000000e+00   4.900000e+01   0.000000e+00
  2.000000e+00   5.000000e+01   0.000000e+00
  2.000000e+00   5.100000e+01   0.000000e+00
  2.000000e+00   5.200000e+01   0.000000e+00
  2.000000e+00   5.300000e+01   0.000000e+00
  2.000000e+00   5.400000e+01   0.000000e+00
  2.000000e+00   5.500000e+01   0.000000e+00
  2.000000e+00   5.600000e+01   0.000000e+00
  2.000000e+00   5.700000e+01   0.000000e+00
  2.000000e+00   5.800000e+01   0.000000e+00
  2.000000e+00   5.900000e+01   0.000000e+00
  2.000000e+00   6.000000e+01   0.000000e+00
  2.000000e+00   6.100000e+01   0.000000e+00
  2.000000e+00   6.200000e+01   0.000000e+00
  2.000000e+00   6.300000e+01   0.000000e+00
  3.000000e+00   0.000000e+00   0.000000e+00
  3.000000e+00   1.000000e+00   0.000000e+00
  3.000000e+00   2.000000e+00   0.000000e+00
  3.000000e+00   3.000000e+00   0.000000e+00
  3.000000e+00   4.000000e+00   0.000000e+00
  3.000000e+00   5.000000e+00   0.000000e+00
  3.000000e+00   6.000000e+00   0.000000e+00
  3.000000e+00   7.000000e+00   0.000000e+00
  3.000000e+00   8.000000e+00   0.000000e+00
  3.000000e+00   9.000000e+00   0.000000e+00
  3.000000e+00   1.000000e+01   0.000000e+00
  3.000000e+00   1.100000e+01   0.000000e+00
  3.000000e+00   1.200000e+01   0.000000e+00
  3.000000e+00   1.300000e+01   0.000000e+00
  3.000000e+00   1.400000e+01   0.000000e+00
  3.000000e+00   1.500000e+01   0.000000e+00
  3.000000e+00   1.600000e+01   0.000000e+00
  3.000000e+00   1.700000e+01   0.000000e+00
  3.000000e+00   1.800000e+01   0.000000e+00
  3.000000e+00   1.900000e+01   0.000000e+00
  3.000000e+00   2.000000e+01   0.000000e+00
  3.000000e+00   2.100000e+01   0.000000e+00
  3.000000e+00   2.200000e+01   0.000000e+00
  3.000000e+00   2.300000e+01   0.000000e+00
  3.000000e+00   2.400000e+01   0.000000e+00
  3.000000e+00   2.500000e+01   0.000000e+00
  3.000000e+00   2.600000e+01   0.000000e+00
[...]
POINT_DATA  4096
SCALARS CON float 1
LOOKUP_TABLE default
  6.997488e-01
  9.442233e-01
  9.951023e-01
  9.999000e-01
  9.999000e-01
  9.948197e-01
  9.653848e-01
  8.216351e-01
  3.577843e-01
  9.381850e-02
  3.197177e-02
  1.873251e-02
  1.580866e-02
  1.625958e-02
  1.914063e-02
  2.389247e-02
  2.918371e-02
  3.350739e-02
  3.621470e-02
  3.751202e-02
  3.735943e-02
  3.528017e-02
  3.134362e-02
  2.695660e-02
  2.622053e-02
  4.087257e-02
  1.118110e-01
  3.407822e-01
  7.086848e-01
  9.009465e-01
  9.612431e-01
  9.712857e-01
  9.559370e-01
  9.176334e-01
  8.580718e-01
  7.885652e-01
  6.846817e-01
  4.933082e-01
  2.719127e-01
  1.211848e-01
  5.343643e-02
  3.501991e-02
  3.458663e-02
  4.559480e-02
  7.427973e-02
  1.139657e-01
  1.292006e-01
  1.021302e-01
  6.390249e-02
  4.420932e-02
  4.030865e-02
  6.092291e-02
  1.619048e-01
  4.507465e-01
  7.244440e-01
  8.100765e-01
  7.710149e-01
  5.708792e-01
  2.419587e-01
  7.598493e-02
  3.324965e-02
  2.898227e-02
  5.577297e-02
  2.004496e-01
  6.731329e-01
  9.321174e-01
  9.898774e-01
  9.966890e-01
  9.908452e-01
  9.690240e-01
  8.920836e-01
  6.332421e-01
  2.089728e-01
  6.180088e-02
  2.925054e-02
  2.244675e-02
  2.182310e-02
  2.497251e-02
  3.241112e-02
  4.327663e-02
  5.570680e-02
  6.861122e-02
  8.116598e-02
  9.122907e-02
  9.464030e-02
  8.753701e-02
  7.013786e-02
  4.817950e-02
  3.227474e-02
  2.874707e-02
  4.581461e-02
  1.215937e-01
  3.447601e-01
  6.987475e-01
  8.942099e-01
  9.606690e-01
  9.778270e-01
  9.777421e-01
  9.703541e-01
  9.584027e-01
  9.339456e-01
  8.702432e-01
  7.054696e-01
  3.650443e-01
  1.196060e-01
  5.236817e-02
  4.784248e-02
  8.433677e-02
  2.038619e-01
  3.720737e-01
  4.276113e-01
  3.053800e-01
  1.346492e-01
  6.408442e-02
  5.195970e-02
  1.005725e-01
  3.371947e-01
  7.689671e-01
  9.348680e-01
  9.712545e-01
  9.564587e-01
  8.573106e-01
  5.248199e-01
  1.452538e-01
  4.491475e-02
  3.037050e-02
  5.491542e-02
  1.927644e-01
  4.606860e-01
  8.163053e-01
  9.336148e-01
  9.541503e-01
  9.332520e-01
  8.587824e-01
  6.677452e-01
  3.230507e-01
  1.164346e-01
  6.498239e-02
  5.888052e-02
  6.216179e-02
  7.105760e-02
  9.166080e-02
  1.290588e-01
  1.764671e-01
  2.242019e-01
  2.709012e-01
  3.165444e-01
  3.534193e-01
  3.639593e-01
  3.306853e-01
  2.501656e-01
  1.416542e-01
  6.244258e-02
  3.355415e-02
  2.841720e-02
  4.510788e-02
  1.161885e-01
  3.229124e-01
  6.733036e-01
  8.837061e-01
  9.600968e-01
  9.840828e-01
  9.913936e-01
  9.931349e-01
  9.904446e-01
  9.765690e-01
  9.160475e-01
  6.885539e-01
  2.374946e-01
  8.286156e-02
  7.167840e-02
  1.688626e-01
  5.210121e-01
  8.117335e-01
  8.611301e-01
  7.057201e-01
  2.831081e-01
  9.752230e-02
  6.637704e-02
  1.482892e-01
  5.282751e-01
  8.904912e-01
  9.830586e-01
  9.997261e-01
  9.942763e-01
  9.458525e-01
  7.247897e-01
  2.134730e-01
  5.522686e-02
  2.855226e-02
  4.258852e-02
  1.299545e-01
  1.907648e-01
  4.592903e-01
  6.816195e-01
  7.397991e-01
  6.762088e-01
  4.904864e-01
  2.754045e-01
  1.532947e-01
  1.430988e-01
  1.907752e-01
  2.361690e-01
  2.712359e-01
  3.168090e-01
  4.046392e-01
  5.440095e-01
  6.759633e-01
  7.585463e-01
  8.060363e-01
  8.363578e-01
  8.558241e-01
  8.614113e-01
  8.385821e-01
  7.374077e-01
  4.521045e-01
  1.508215e-01
  5.331399e-02
  2.873462e-02
  2.535168e-02
  4.067139e-02
  1.041101e-01
  2.917378e-01
  6.369228e-01
  8.669857e-01
  9.561178e-01
  9.864431e-01
  9.969303e-01
  9.999000e-01
  9.995931e-01
  9.728766e-01
  8.267137e-01
  3.373454e-01
  1.103183e-01
  9.013893e-02
  2.293031e-01
  6.962907e-01
  9.338290e-01
  9.640157e-01
  8.375486e-01
  3.686497e-01
  1.162022e-01
  7.348433e-02
  1.754470e-01
  6.267098e-01
  9.239138e-01
  9.902323e-01
  9.999000e-01
  9.983731e-01
  9.665711e-01
  7.971770e-01
  2.559733e-01
  6.030759e-02
  2.443081e-02
  2.786384e-02
  6.337317e-02
  6.174884e-02
  1.266255e-01
  1.926279e-01
  2.148729e-01
  1.896523e-01
  1.401367e-01
  1.174867e-01
  1.926933e-01
  4.178321e-01
  6.587458e-01
  7.711588e-01
  8.114839e-01
  8.334806e-01
  8.608382e-01
  8.967042e-01
  9.286117e-01
  9.494857e-01
  9.625769e-01
  9.718667e-01
  9.789148e-01
  9.828475e-01
  9.781960e-01
  9.379249e-01
  7.528677e-01
  2.769241e-01
  8.161657e-02
  3.459479e-02
  2.253182e-02
  2.147391e-02
  3.514729e-02
  9.014558e-02
  2.543814e-01
  5.806291e-01
  8.347448e-01
  9.432587e-01
  9.824699e-01
  9.965706e-01
  9.992468e-01
  9.755778e-01
  8.370639e-01
  3.514883e-01
  1.138861e-01
  8.576961e-02
  1.991092e-01
  6.077234e-01
  8.755839e-01
  9.115231e-01
  7.556470e-01
  3.040010e-01
  9.917491e-02
  6.687274e-02
  1.663858e-01
  6.103557e-01
  9.193851e-01
  9.883826e-01
  9.996369e-01
  9.974633e-01
  9.702878e-01
  8.223076e-01
  2.897959e-01
  6.399136e-02
  2.018409e-02
  1.757852e-02
  2.913217e-02
  2.452856e-02
  3.817222e-02
  5.101953e-02
  5.598459e-02
  5.438804e-02
  6.065896e-02
  1.267589e-01
  4.065832e-01
  7.799417e-01
  9.216177e-01
  9.602711e-01
  9.690315e-01
  9.707588e-01
  9.727593e-01
  9.766799e-01
  9.810830e-01
  9.848677e-01
  9.884165e-01
  9.923116e-01
  9.965024e-01
  9.999000e-01
  9.999000e-01
  9.776951e-01
  8.401752e-01
  3.463725e-01
  9.865803e-02
  3.900910e-02
  2.350277e-02
  1.801442e-02
  1.810161e-02
  2.982322e-02
  7.483363e-02
  2.064025e-01
  4.836318e-01
  7.657610e-01
  9.022411e-01
  9.536016e-01
  9.619307e-01
  9.181462e-01
  7.195751e-01
  2.650785e-01
  9.080781e-02
  6.471470e-02
  1.128561e-01
  2.979838e-01
  5.557217e-01
  6.109562e-01
  4.139650e-01
  1.590324e-01
  6.506362e-02
  5.256651e-02
  1.312030e-01
  5.007872e-01
  8.886167e-01
  9.815906e-01
  9.976791e-01
  9.958962e-01
  9.720285e-01
  8.450043e-01
  3.547987e-01
  7.653559e-02
  1.834680e-02
  1.141005e-02
  1.550133e-02
  1.368766e-02
  1.819533e-02
  2.204459e-02
  2.489715e-02
  3.008607e-02
  5.465161e-02
  1.780603e-01
  6.253063e-01
  9.166241e-01
  9.866973e-01
  9.987168e-01
  9.979253e-01
  9.940167e-01
  9.895028e-01
  9.854791e-01
  9.823880e-01
  9.805355e-01
  9.804841e-01
  9.825837e-01
  9.862069e-01
  9.892254e-01
  9.860953e-01
  9.532403e-01
  7.894682e-01
  3.055490e-01
  9.030338e-02
  3.840135e-02
  2.436097e-02
  1.851164e-02
  1.559850e-02
  1.627643e-02
  2.573750e-02
  5.873016e-02
  1.476235e-01
  3.320309e-01
  5.902057e-01
  7.435977e-01
  7.707406e-01
  6.703671e-01
  3.886110e-01
  1.384278e-01
  6.057906e-02
  4.700231e-02
  5.990240e-02
  1.050980e-01
  1.710081e-01
  1.881163e-01
  1.345375e-01
  7.155522e-02
  4.300066e-02
  4.051844e-02
  9.265289e-02
  3.549909e-01
  8.309307e-01
  9.683871e-01
  9.943075e-01
  9.947057e-01
  9.762842e-01
  8.820880e-01
  4.942921e-01
  1.156402e-01
  2.359870e-02
  8.839408e-03
  9.716187e-03
  1.012317e-02
  1.277554e-02
  1.541151e-02
  1.850969e-02
  2.559516e-02
  5.419023e-02
  1.893171e-01
  6.625793e-01
  9.327667e-01
  9.925540e-01
  9.999000e-01
  9.955605e-01
  9.857820e-01
  9.718354e-01
  9.565198e-01
  9.423481e-01
  9.308723e-01
  9.239722e-01
  9.225753e-01
  9.238182e-01
  9.195888e-01
  8.938278e-01
  8.056296e-01
  5.474549e-01
  1.867475e-01
  6.491545e-02
  3.433890e-02
  2.521715e-02
  2.145406e-02
  1.976084e-02
  1.931633e-02
  2.103182e-02
  2.844391e-02
  4.928139e-02
  9.519650e-02
  1.690164e-01
  2.317113e-01
  2.470601e-01
  2.037089e-01
  1.216906e-01
  6.211660e-02
  4.134081e-02
  3.736079e-02
  4.079897e-02
  5.117298e-02
  6.576995e-02
  7.215657e-02
  6.368659e-02
  4.922736e-02
  3.805360e-02
  3.527725e-02
  6.506562e-02
  2.349127e-01
  7.211910e-01
  9.379502e-01
  9.866950e-01
  9.931061e-01
  9.820284e-01
  9.250534e-01
  6.810499e-01
  2.138230e-01
  4.901908e-02
  1.354005e-02
  8.580045e-03
  1.182568e-02
  1.159378e-02
  1.313353e-02
  1.593452e-02
  2.224239e-02
  4.414352e-02
  1.398412e-01
  4.953410e-01
  8.430174e-01
  9.474101e-01
  9.648600e-01
  9.529364e-01
  9.185839e-01
  8.612636e-01
  7.986045e-01
  7.437292e-01
  6.996546e-01
  6.702263e-01
  6.567439e-01
  6.473589e-01
  6.134892e-01
  5.186824e-01
  3.587309e-01
  1.940609e-01
  8.215690e-02
  4.302268e-02
  3.173627e-02
  3.004425e-02
  3.461776e-02
  4.349929e-02
  5.153223e-02
  5.681146e-02
  6.102745e-02
  6.688647e-02
  7.623281e-02
  8.701555e-02
  9.011268e-02
  8.140400e-02
  6.572016e-02
  4.841474e-02
  3.708698e-02
  3.305444e-02
  3.279409e-02
  3.496435e-02
  4.096034e-02
  5.373670e-02
  7.175545e-02
  8.240702e-02
  7.724698e-02
  5.958494e-02
  4.264333e-02
  4.936764e-02
  1.404481e-01
  4.983476e-01
  8.542967e-01
  9.633999e-01
  9.872331e-01
  9.856403e-01
  9.574362e-01
  8.321483e-01
  4.441575e-01
  1.406871e-01
  4.344568e-02
  1.766126e-02
  2.913786e-02
  1.643173e-02
  1.312654e-02
  1.391337e-02
  1.798566e-02
  2.993463e-02
  7.245349e-02
  2.228258e-01
  5.250780e-01
  7.283081e-01
  7.776649e-01
  7.392766e-01
  6.158171e-01
  4.225530e-01
  2.770948e-01
  2.058923e-01
  1.737609e-01
  1.606184e-01
  1.584327e-01
  1.598721e-01
  1.544786e-01
  1.331509e-01
  9.852420e-02
  6.506896e-02
  4.304664e-02
  3.484562e-02
  3.651288e-02
  5.348636e-02
  9.781167e-02
  1.642109e-01
  2.182510e-01
  2.488608e-01
  2.630439e-01
  2.670320e-01
  2.593871e-01
  2.303263e-01
  1.708873e-01
  9.956554e-02
  5.472111e-02
  3.657108e-02
  3.091408e-02
  2.991466e-02
  3.098081e-02
  3.546618e-02
  5.163565e-02
  1.011262e-01
  1.910161e-01
  2.565626e-01
  2.517208e-01
  1.803850e-01
  9.213442e-02
  5.180145e-02
  7.689789e-02
  2.457229e-01
  6.430687e-01
  8.866487e-01
  9.636902e-01
  9.820074e-01
  9.757028e-01
  9.295427e-01
  7.600465e-01
  4.137591e-01
  1.684757e-01
  6.635852e-02
  1.089071e-01
  4.379210e-02
  2.032611e-02
  1.380933e-02
  1.435184e-02
  1.973516e-02
  3.423655e-02
  7.292517e-02
  1.480935e-01
  2.151567e-01
  2.342855e-01
  2.080651e-01
  1.543697e-01
  9.671112e-02
  5.941524e-02
  4.243629e-02
  3.714644e-02
  3.857940e-02
  4.331208e-02
  4.762624e-02
  4.858902e-02
  4.582876e-02
  4.109508e-02
  3.645502e-02
  3.391162e-02
  3.711149e-02
  5.906106e-02
  1.442576e-01
  3.509417e-01
  6.092784e-01
  7.495728e-01
  7.989707e-01
  8.136492e-01
  8.145155e-01
  7.998622e-01
  7.433232e-01
  5.806799e-01
  3.082105e-01
  1.179181e-01
  4.944569e-02
  3.228057e-02
  2.930732e-02
  3.133294e-02
  4.319224e-02
  9.643314e-02
  2.909326e-01
  6.106054e-01
  7.678784e-01
  7.642940e-01
  5.983894e-01
  2.787052e-01
  9.144676e-02
  5.246288e-02
  9.999936e-02
  2.973309e-01
  6.560576e-01
  8.745022e-01
  9.541653e-01
  9.762699e-01
  9.702545e-01
  9.251425e-01
  7.955460e-01
  5.409887e-01
  2.618674e-01
  3.858974e-01
  1.571417e-01
  5.725262e-02
  2.347168e-02
  1.471316e-02
  1.513799e-02
  2.019334e-02
  2.994986e-02
  4.444586e-02
  5.604580e-02
  5.757769e-02
  4.954689e-02
  3.666470e-02
  2.451567e-02
  1.770969e-02
  1.758424e-02
  2.532875e-02
  4.143811e-02
  5.803839e-02
  6.334103e-02
  5.441215e-02
  4.197538e-02
  3.554029e-02
  3.329379e-02
  3.469136e-02
  4.792860e-02
  1.148602e-01
  3.748392e-01
  7.492209e-01
  9.069178e-01
  9.544671e-01
  9.672130e-01
  9.702394e-01
  9.701976e-01
  9.665017e-01
  9.502964e-01
  8.895589e-01
  6.933803e-01
  2.956006e-01
  8.966894e-02
  3.963753e-02
  3.047857e-02
  3.344700e-02
  5.805477e-02
  1.799204e-01
  6.014068e-01
  8.844503e-01
  9.604522e-01
  9.598282e-01
  8.818968e-01
  5.949712e-01
  1.740642e-01
  5.535877e-02
  4.535705e-02
  9.980887e-02
  2.732716e-01
  6.001820e-01
  8.417714e-01
  9.424552e-01
  9.738517e-01
  9.741065e-01
  9.468679e-01
  8.702637e-01
  6.941586e-01
  7.808744e-01
  4.861637e-01
  2.023423e-01
  7.589857e-02
  3.390536e-02
  2.209409e-02
  2.076840e-02
  2.255155e-02
  2.453416e-02
  2.518294e-02
  2.358918e-02
  2.011906e-02
  1.615073e-02
  1.357265e-02
  1.519193e-02
  2.735240e-02
  6.555903e-02
  1.417770e-01
  2.126286e-01
  2.188911e-01
  1.520263e-01
  7.638034e-02
  4.541485e-02
  3.656273e-02
  3.815253e-02
  6.201184e-02
  1.868431e-01
  6.295660e-01
  9.116672e-01
  9.823461e-01
  9.958694e-01
  9.976313e-01
  9.976168e-01
  9.974986e-01
  9.971060e-01
  9.940430e-01
  9.752025e-01
  8.822204e-01
  5.386639e-01
  1.509723e-01
  5.089961e-02
  3.255429e-02
  3.558918e-02
  7.044127e-02
  2.450009e-01
  7.622115e-01
  9.595173e-01
  9.999000e-01
  9.999000e-01
  9.607258e-01
  7.654835e-01
  2.433202e-01
  6.530243e-02
  3.075249e-02
  3.655409e-02
  8.284411e-02
  2.225646e-01
  5.206575e-01
  8.052245e-01
  9.326845e-01
  9.741899e-01
  9.815905e-01
  9.680393e-01
  9.189754e-01
  9.373455e-01
  8.257923e-01
  5.766032e-01
  2.850051e-01
  1.395038e-01
  7.955622e-02
  5.611145e-02
  4.341823e-02
  3.239682e-02
  2.450660e-02
  1.971267e-02
  1.629283e-02
  1.393733e-02
  1.429175e-02
  2.391572e-02
  6.797615e-02
  2.211398e-01
  5.148443e-01
  7.140787e-01
  7.112586e-01
  4.864336e-01
  1.768304e-01
  6.809397e-02
  4.186632e-02
  4.042240e-02
  6.764763e-02
  2.139821e-01
  7.041164e-01
  9.426869e-01
  9.936691e-01
  9.999000e-01
  9.999000e-01
  9.999000e-01
  9.999000e-01
  9.999000e-01
  9.999000e-01
  9.927195e-01
  9.337379e-01
  6.621789e-01
  1.894181e-01
  5.822577e-02
  3.394645e-02
  3.608422e-02
  7.168770e-02
  2.505759e-01
  7.719850e-01
  9.625440e-01
  9.999000e-01
  9.999000e-01
  9.668704e-01
  7.859276e-01
  2.565736e-01
  6.809228e-02
  2.800331e-02
  2.124166e-02
  2.916149e-02
  6.588038e-02
  1.810339e-01
  4.542866e-01
  7.697643e-01
  9.188955e-01
  9.693366e-01
  9.821643e-01
  9.748267e-01
  9.633544e-01
  9.400697e-01
  8.698397e-01
  7.294819e-01
  5.271605e-01
  3.463486e-01
  2.423503e-01
  1.656840e-01
  9.189709e-02
  4.500334e-02
  2.564988e-02
  1.799585e-02
  1.494972e-02
  1.793422e-02
  4.359033e-02
  1.650069e-01
  5.458974e-01
  8.515712e-01
  9.460007e-01
  9.364933e-01
  7.765409e-01
  3.060709e-01
  9.468953e-02
  4.623455e-02
  3.971952e-02
  5.996063e-02
  1.744175e-01
  5.924664e-01
  8.951627e-01
  9.761392e-01
  9.935534e-01
  9.970836e-01
  9.981023e-01
  9.987782e-01
  9.993317e-01
  9.982738e-01
  9.853643e-01
  9.112971e-01
  6.067870e-01
  1.722777e-01
  5.565543e-02
  3.405422e-02
  3.530561e-02
  6.180040e-02
  1.945128e-01
  6.393689e-01
  9.019760e-01
  9.687668e-01
  9.713912e-01
  9.149096e-01
  6.730249e-01
  2.066011e-01
  6.013563e-02
  2.770105e-02
  1.941654e-02
  1.794656e-02
  2.487007e-02
  5.508322e-02
  1.512960e-01
  3.872669e-01
  7.047863e-01
  8.734555e-01
  9.401415e-01
  9.621639e-01
  8.928390e-01
  9.275756e-01
  9.372791e-01
  9.214291e-01
  8.818546e-01
  8.304261e-01
  7.604461e-01
  6.050234e-01
  3.277836e-01
  1.192693e-01
  4.442999e-02
  2.275962e-02
  1.685549e-02
  2.395806e-02
  7.834970e-02
  3.228308e-01
  7.872413e-01
  9.571231e-01
  9.948469e-01
  9.807161e-01
  8.520112e-01
  3.625041e-01
  1.046381e-01
  4.639025e-02
  3.675335e-02
  4.577561e-02
  1.015973e-01
  3.237391e-01
  7.008176e-01
  8.841630e-01
  9.463730e-01
  9.660734e-01
  9.728266e-01
  9.754680e-01
  9.751279e-01
  9.666785e-01
  9.272759e-01
  7.770005e-01
  3.845616e-01
  1.138994e-01
  4.719736e-02
  3.632348e-02
  3.872920e-02
  5.264243e-02
  1.142332e-01
  3.390532e-01
  6.638828e-01
  8.040684e-01
  8.122325e-01
  6.941643e-01
  3.769577e-01
  1.229561e-01
  4.968054e-02
  3.043221e-02
  2.272845e-02
  1.841607e-02
  1.738379e-02
  2.315694e-02
  4.694274e-02
  1.166010e-01
  2.750489e-01
  5.269004e-01
  7.294801e-01
  8.319466e-01
  5.651428e-01
  7.444655e-01
  8.688568e-01
  9.373756e-01
  9.623396e-01
  9.666439e-01
  9.561207e-01
  9.034788e-01
  7.123925e-01
  2.874836e-01
  8.289383e-02
  3.079299e-02
  1.968074e-02
  3.422430e-02
  1.362885e-01
  5.389708e-01
  8.926906e-01
  9.832771e-01
  9.979920e-01
  9.728227e-01
  8.221590e-01
  3.192076e-01
  9.146274e-02
  4.237758e-02
  3.393152e-02
  3.593749e-02
  5.322343e-02
  1.211373e-01
  2.960684e-01
  5.508152e-01
  7.265645e-01
  7.989837e-01
  8.263564e-01
  8.359550e-01
  8.316203e-01
  7.986112e-01
  6.860269e-01
  4.202032e-01
  1.651704e-01
  6.594561e-02
  4.771287e-02
  5.699822e-02
  7.026437e-02
  7.724635e-02
  8.671349e-02
  1.315953e-01
  2.231291e-01
  2.936930e-01
  3.007986e-01
  2.383775e-01
  1.408732e-01
  8.168538e-02
  6.248276e-02
  5.031779e-02
  3.656520e-02
  2.551479e-02
  1.946702e-02
  1.797802e-02
  2.203717e-02
  3.693310e-02
  7.315137e-02
  1.408975e-01
  2.345598e-01
  3.690248e-01
  1.502377e-01
  2.878584e-01
  5.706561e-01
  8.322750e-01
  9.486740e-01
  9.871989e-01
  9.973337e-01
  9.817266e-01
  8.764531e-01
  4.666660e-01
  1.259058e-01
  3.908653e-02
  2.384336e-02
  5.255455e-02
  2.225981e-01
  7.172401e-01
  9.392030e-01
  9.870358e-01
  9.853981e-01
  9.293580e-01
  6.913234e-01
  2.214247e-01
  6.806051e-02
  3.832494e-02
  3.395400e-02
  3.361335e-02
  3.620861e-02
  4.942027e-02
  8.622791e-02
  1.496319e-01
  2.142211e-01
  2.611401e-01
  2.910790e-01
  3.056766e-01
  3.012460e-01
  2.704403e-01
  2.080470e-01
  1.249212e-01
  6.676073e-02
  5.429938e-02
  8.675266e-02
  1.652672e-01
  2.341572e-01
  2.428268e-01
  1.888194e-01
  1.176677e-01
  9.006186e-02
  9.018959e-02
  9.177796e-02
  9.137580e-02
  1.064400e-01
  1.470052e-01
  1.751696e-01
  1.539122e-01
  9.806451e-02
  5.143552e-02
  2.855703e-02
  2.050028e-02
  1.863931e-02
  2.040837e-02
  2.639510e-02
  3.793547e-02
  5.564009e-02
  8.650905e-02
  3.513072e-02
  7.526506e-02
  2.088618e-01
  5.393859e-01
  8.458629e-01
  9.610328e-01
  9.941535e-01
  9.879442e-01
  8.955955e-01
  5.024700e-01
  1.351919e-01
  4.184054e-02
  3.216098e-02
  9.376469e-02
  3.738818e-01
  8.254506e-01
  9.596054e-01
  9.807361e-01
  9.528346e-01
  8.145403e-01
  4.234097e-01
  1.233066e-01
  5.079721e-02
  4.219338e-02
  4.343776e-02
  4.154040e-02
  3.687577e-02
  3.433379e-02
  3.736079e-02
  4.627588e-02
  5.726266e-02
  6.680651e-02
  7.403400e-02
  7.836446e-02
  7.840101e-02
  7.256834e-02
  6.086278e-02
  4.776163e-02
  4.634567e-02
  8.415141e-02
  2.423621e-01
  5.523870e-01
  7.402273e-01
  7.515068e-01
  5.929034e-01
  2.816692e-01
  1.010478e-01
  5.537619e-02
  5.531845e-02
  9.552932e-02
  2.388702e-01
  4.717669e-01
  6.090186e-01
  5.551214e-01
  3.455981e-01
  1.484710e-01
  5.521715e-02
  2.799297e-02
  2.104221e-02
  1.940362e-02
  1.931682e-02
  1.976590e-02
  2.055392e-02
  2.353091e-02
  1.534523e-02
  2.359122e-02
  6.569755e-02
  2.160277e-01
  5.655108e-01
  8.349903e-01
  9.304511e-01
  9.262991e-01
  7.843364e-01
  3.580527e-01
  1.010889e-01
  4.061363e-02
  5.630194e-02
  1.951564e-01
  6.150781e-01
  9.014716e-01
  9.687758e-01
  9.631208e-01
  8.761681e-01
  5.747476e-01
  1.968294e-01
  6.952788e-02
  5.838879e-02
  7.952005e-02
  9.315638e-02
  8.272562e-02
  5.786173e-02
  3.931760e-02
  3.118570e-02
  2.881216e-02
  2.922127e-02
  3.106720e-02
  3.360134e-02
  3.580176e-02
  3.655993e-02
  3.551842e-02
  3.370377e-02
  3.481550e-02
  5.317879e-02
  1.519610e-01
  5.235941e-01
  8.563373e-01
  9.533059e-01
  9.567990e-01
  8.747661e-01
  5.738490e-01
  1.714167e-01
  6.369128e-02
  6.493450e-02
  1.737659e-01
  5.558688e-01
  8.406717e-01
  9.203621e-01
  9.010305e-01
  7.644700e-01
  4.092850e-01
  1.207079e-01
  4.273689e-02
  2.617131e-02
  2.316928e-02
  2.299152e-02
  2.246822e-02
  2.014518e-02
  1.670900e-02
  2.103550e-02
  1.680953e-02
  2.611242e-02
  7.076806e-02
  2.038480e-01
  4.477386e-01
  6.474613e-01
  6.479336e-01
  4.318448e-01
  1.661079e-01
  6.193012e-02
  5.206947e-02
  1.316088e-01
  4.180612e-01
  8.104013e-01
  9.473337e-01
  9.688140e-01
  9.248769e-01
  7.172299e-01
  2.874739e-01
  9.108937e-02
  6.756704e-02
  1.370247e-01
  2.550575e-01
  3.141004e-01
  2.628821e-01
  1.441987e-01
  6.440820e-02
  3.684035e-02
  2.887982e-02
  2.790086e-02
  3.100092e-02
  3.676203e-02
  4.179966e-02
  4.254502e-02
  3.882460e-02
  3.446550e-02
  3.607333e-02
  6.292872e-02
  2.059592e-01
  6.942903e-01
  9.435644e-01
  9.988716e-01
  9.999000e-01
  9.521516e-01
  7.295492e-01
  2.262281e-01
  7.571529e-02
  8.154498e-02