# vtk DataFile Version 2.0
time_10.vtk
ASCII
DATASET STRUCTURED_GRID
DIMENSIONS    64    64     1
POINTS    4096 float
  0.000000e+00   0.000000e+00   0.000000e+00
  0.000000e+00   1.000000e+00   0.000000e+00
  0.000000e+00   2.000000e+00   0.000000e+00
  0.000000e+00   3.000000e+00   0.000000e+00
  0.000000e+00   4.000000e+00   0.000000e+00
  0.000000e+00   5.000000e+00   0.000000e+00
  0.000000e+00   6.000000e+00   0.000000e+00
  0.000000e+00   7.000000e+00   0.000000e+00
  0.000000e+00   8.000000e+00   0.000000e+00
  0.000000e+00   9.000000e+00   0.000000e+00
  0.000000e+00   1.000000e+01   0.000000e+00
  0.000000e+00   1.100000e+01   0.000000e+00
  0.000000e+00   1.200000e+01   0.000000e+00
  0.000000e+00   1.300000e+01   0.000000e+00
  0.000000e+00   1.400000e+01   0.000000e+00
  0.000000e+00   1.500000e+01   0.000000e+00
  0.000000e+00   1.600000e+01   0.000000e+00
  0.000000e+00   1.700000e+01   0.000000e+00
  0.000000e+00   1.800000e+01   0.000000e+00
  0.000000e+00   1.900000e+01   0.000000e+00
  0.000000e+00   2.000000e+01   0.000000e+00
  0.000000e+00   2.100000e+01   0.000000e+00
  0.000000e+00   2.200000e+01   0.000000e+00
  0.000000e+00   2.300000e+01   0.000000e+00
  0.000000e+00   2.400000e+01   0.000000e+00
  0.000000e+00   2.500000e+01   0.000000e+00
  0.000000e+00   2.600000e+01   0.000000e+00
  0.000000e+00   2.700000e+01   0.000000e+00
  0.000000e+00   2.800000e+01   0.000000e+00
  0.000000e+00   2.900000e+01   0.000000e+00
  0.000000e+00   3.000000e+01   0.000000e+00
  0.000000e+00   3.100000e+01   0.000000e+00
  0.000000e+00   3.200000e+01   0.000000e+00
  0.000000e+00   3.300000e+01   0.000000e+00
  0.000000e+00   3.400000e+01   0.000000e+00
  0.000000e+00   3.500000e+01   0.000000e+00
  0.000000e+00   3.600000e+01   0.000000e+00
  0.000000e+00   3.700000e+01   0.000000e+00
  0.000000e+00   3.800000e+01   0.000000e+00
  0.000000e+00   3.900000e+01   0.000000e+00
  0.000000e+00   4.000000e+01   0.000000e+00
  0.000000e+00   4.100000e+01   0.000000e+00
  0.000000e+00   4.200000e+01   0.000000e+00
  0.000000e+00   4.300000e+01   0.000000e+00
  0.000000e+00   4.400000e+01   0.000000e+00
  0.000000e+00   4.500000e+01   0.000000e+00
  0.000000e+00   4.600000e+01   0.000000e+00
  0.000000e+00   4.700000e+01   0.000000e+00
  0.000000e+00   4.800000e+01   0.000000e+00
  0.000000e+00   4.900000e+01   0.000000e+00
  0.000000e+00   5.000000e+01   0.000000e+00
  0.000000e+00   5.100000e+01   0.000000e+00
  0.000000e+00   5.200000e+01   0.000000e+00
  0.000000e+00   5.300000e+01   0.000000e+00
  0.000000e+00   5.400000e+01   0.000000e+00
  0.000000e+00   5.500000e+01   0.000000e+00
  0.000000e+00   5.600000e+01   0.000000e+00
  0.000000e+00   5.700000e+01   0.000000e+00
  0.000000e+00   5.800000e+01   0.000000e+00
  0.000000e+00   5.900000e+01   0.000000e+00
  0.000000e+00   6.000000e+01   0.000000e+00
  0.000000e+00   6.100000e+01   0.000000e+00
  0.000000e+00   6.200000e+01   0.000000e+00
  0.000000e+00   6.300000e+01   0.000000e+00
  1.000000e+00   0.000000e+00   0.000000e+00
  1.000000e+00   1.000000e+00   0.000000e+00
  1.000000e+00   2.000000e+00   0.000000e+00
  1.000000e+00   3.000000e+00   0.000000e+00
  1.000000e+00   4.000000e+00   0.000000e+00
  1.000000e+00   5.000000e+00   0.000000e+00
  1.000000e+00   6.000000e+00   0.000000e+00
  1.000000e+00   7.000000e+00   0.000000e+00
  1.000000e+00   8.000000e+00   0.000000e+00
  1.000000e+00   9.000000e+00   0.000000e+00
  1.000000e+00   1.000000e+01   0.000000e+00
  1.000000e+00   1.100000e+01   0.000000e+00
  1.000000e+00   1.200000e+01   0.000000e+00
  1.000000e+00   1.300000e+01   0.000000e+00
  1.000000e+00   1.400000e+01   0.000000e+00
  1.000000e+00   1.500000e+01   0.000000e+00
  1.000000e+00   1.600000e+01   0.000000e+00
  1.000000e+00   1.700000e+01   0.000000e+00
  1.000000e+00   1.800000e+01   0.000000e+00
  1.000000e+00   1.900000e+01   0.000000e+00
  1.000000e+00   2.000000e+01   0.000000e+00
  1.000000e+00   2.100000e+01   0.000000e+00
  1.000000e+00   2.200000e+01   0.000000e+00
  1.000000e+00   2.300000e+01   0.000000e+00
  1.000000e+00   2.400000e+01   0.000000e+00
  1.000000e+00   2.500000e+01   0.000000e+00
  1.000000e+00   2.600000e+01   0.000000e+00
  1.000000e+00   2.700000e+01   0.000000e+00
  1.000000e+00   2.800000e+01   0.000000e+00
  1.000000e+00   2.900000e+01   0.000000e+00
  1.000000e+00   3.000000e+01   0.000000e+00
  1.000000e+00   3.100000e+01   0.000000e+00
  1.000000e+00   3.200000e+01   0.000000e+00
  1.000000e+00   3.300000e+01   0.000000e+00
  1.000000e+00   3.400000e+01   0.000000e+00
  1.000000e+00   3.500000e+01   0.000000e+00
  1.000000e+00   3.600000e+01   0.000000e+00
  1.000000e+00   3.700000e+01   0.000000e+00
  1.000000e+00   3.800000e+01   0.000000e+00
  1.000000e+00   3.900000e+01   0.000000e+00
  1.000000e+00   4.000000e+01   0.000000e+00
  1.000000e+00   4.100000e+01   0.000000e+00
  1.000000e+00   4.200000e+01   0.000000e+00
  1.000000e+00   4.300000e+01   0.000000e+00
  1.000000e+00   4.400000e+01   0.000000e+00
  1.000000e+00   4.500000e+01   0.000000e+00
  1.000000e+00   4.600000e+01   0.000000e+00
  1.000000e+00   4.700000e+01   0.000000e+00
  1.000000e+00   4.800000e+01   0.000000e+00
  1.000000e+00   4.900000e+01   0.000000e+00
  1.000000e+00   5.000000e+01   0.000000e+00
  1.000000e+00   5.100000e+01   0.000000e+00
  1.000000e+00   5.200000e+01   0.000000e+00
  1.000000e+00   5.300000e+01   0.000000e+00
  1.000000e+00   5.400000e+01   0.000000e+00
  1.000000e+00   5.500000e+01   0.000000e+00
  1.000000e+00   5.600000e+01   0.000000e+00
  1.000000e+00   5.700000e+01   0.000000e+00
  1.000000e+00   5.800000e+01   0.000000e+00
  1.000000e+00   5.900000e+01   0.000000e+00
  1.000000e+00   6.000000e+01   0.000000e+00
  1.000000e+00   6.100000e+01   0.000000e+00
  1.000000e+00   6.200000e+01   0.000000e+00
  1.000000e+00   6.300000e+01   0.000000e+00
  2.000000e+00   0.000000e+00   0.000000e+00
  2.000000e+00   1.000000e+00   0.000000e+00
  2.000000e+00   2.000000e+00   0.000000e+00
  2.000000e+00   3.000000e+00   0.000000e+00
  2.000000e+00   4.000000e+00   0.000000e+00
  2.000000e+00   5.000000e+00   0.000000e+00
  2.000000e+00   6.000000e+00   0.000000e+00
  2.000000e+00   7.000000e+00   0.000000e+00
  2.000000e+00   8.000000e+00   0.000000e+00
  2.000000e+00   9.000000e+00   0.000000e+00
  2.000000e+00   1.000000e+01   0.000000e+00
  2.000000e+00   1.100000e+01   0.000000e+00
  2.000000e+00   1.200000e+01   0.000000e+00
  2.000000e+00   1.300000e+01   0.000000e+00
  2.000000e+00   1.400000e+01   0.000000e+00
  2.000000e+00   1.500000e+01   0.000000e+00
  2.000000e+00   1.600000e+01   0.000000e+00
  2.000000e+00   1.700000e+01   0.000000e+00
  2.000000e+00   1.800000e+01   0.000000e+00
  2.000000e+00   1.900000e+01   0.000000e+00
  2.000000e+00   2.000000e+01   0.000000e+00
  2.000000e+00   2.100000e+01   0.000000e+00
  2.000000e+00   2.200000e+01   0.000000e+00
  2.000000e+00   2.300000e+01   0.000000e+00
  2.000000e+00   2.400000e+01   0.000000e+00
  2.000000e+00   2.500000e+01   0.000000e+00
  2.000000e+00   2.600000e+01   0.000000e+00
  2.000000e+00   2.700000e+01   0.000000e+00
  2.000000e+00   2.800000e+01   0.000000e+00
  2.000000e+00   2.900000e+01   0.000000e+00
  2.000000e+00   3.000000e+01   0.000000e+00
  2.000000e+00   3.100000e+01   0.000000e+00
  2.000000e+00   3.200000e+01   0.000000e+00
  2.000000e+00   3.300000e+01   0.000000e+00
  2.000000e+00   3.400000e+01   0.000000e+00
  2.000000e+00   3.500000e+01   0.000000e+00
  2.000000e+00   3.600000e+01   0.000000e+00
  2.000000e+00   3.700000e+01   0.000000e+00
  2.000000e+00   3.800000e+01   0.000000e+00
  2.000000e+00   3.900000e+01   0.000000e+00
  2.000000e+00   4.000000e+01   0.000000e+00
  2.000000e+00   4.100000e+01   0.000000e+00
  2.000000e+00   4.200000e+01   0.000000e+00
  2.000000e+00   4.300000e+01   0.000000e+00
  2.000000e+00   4.400000e+01   0.000000e+00
  2.000000e+00   4.500000e+01   0.000000e+00
  2.000000e+00   4.600000e+01   0.000000e+00
  2.000000e+00   4.700000e+01   0.000000e+00
  2.000000e+00   4.800000e+01   0.000000e+00
  2.000000e+00   4.900000e+01   0.000000e+00
  2.000000e+00   5.000000e+01   0.000000e+00
  2.000000e+00   5.100000e+01   0.000000e+00
  2.000000e+00   5.200000e+01   0.000000e+00
  2.000000e+00   5.300000e+01   0.000000e+00
  2.000000e+00   5.400000e+01   0.000000e+00
  2.000000e+00   5.500000e+01   0.000000e+00
  2.000000e+00   5.600000e+01   0.000000e+00
  2.000000e+00   5.700000e+01   0.000000e+00
  2.000000e+00   5.800000e+01   0.000000e+00
  2.000000e+00   5.900000e+01   0.000000e+00
  2.000000e+00   6.000000e+01   0.000000e+00
  2.000000e+00   6.100000e+01   0.000000e+00
  2.000000e+00   6.200000e+01   0.000000e+00
  2.000000e+00   6.300000e+01   0.000000e+00
  3.000000e+00   0.000000e+00   0.000000e+00
  3.000000e+00   1.000000e+00   0.000000e+00
  3.000000e+00   2.000000e+00   0.000000e+00
  3.000000e+00   3.000000e+00   0.000000e+00
  3.000000e+00   4.000000e+00   0.000000e+00
  3.000000e+00   5.000000e+00   0.000000e+00
  3.000000e+00   6.000000e+00   0.000000e+00
  3.000000e+00   7.000000e+00   0.000000e+00
  3.000000e+00   8.000000e+00   0.000000e+00
  3.000000e+00   9.000000e+00   0.000000e+00
  3.000000e+00   1.000000e+01   0.000000e+00
  3.000000e+00   1.100000e+01   0.000000e+00
  3.000000e+00   1.200000e+01   0.000000e+00
  3.000000e+00   1.300000e+01   0.000000e+00
  3.000000e+00   1.400000e+01   0.000000e+00
  3.000000e+00   1.500000e+01   0.000000e+00
  3.000000e+00   1.600000e+01   0.000000e+00
  3.000000e+00   1.700000e+01   0.000000e+00
  3.000000e+00   1.800000e+01   0.000000e+00
  3.000000e+00   1.900000e+01   0.000000e+00
  3.000000e+00   2.000000e+01   0.000000e+00
  3.000000e+00   2.100000e+01   0.000000e+00
  3.000000e+00   2.200000e+01   0.000000e+00
  3.000000e+00   2.300000e+01   0.000000e+00
  3.000000e+00   2.400000e+01   0.000000e+00
  3.000000e+00   2.500000e+01   0.000000e+00
  3.000000e+00   2.600000e+01   0.000000e+00
[...]
POINT_DATA  4096
SCALARS CON float 1
LOOKUP_TABLE default
  3.897636e-01
  8.669854e-01
  9.840761e-01
  9.999000e-01
  9.999000e-01
  9.976475e-01
  9.651988e-01
  7.906285e-01
  2.551444e-01
  6.337393e-02
  2.370174e-02
  1.598835e-02
  1.513049e-02
  1.656238e-02
  1.921092e-02
  2.250023e-02
  2.586691e-02
  2.885434e-02
  3.113729e-02
  3.227506e-02
  3.170289e-02
  2.917067e-02
  2.522255e-02
  2.164239e-02
  2.217368e-02
  3.818402e-02
  1.131045e-01
  3.563720e-01
  7.309906e-01
  9.145447e-01
  9.708018e-01
  9.833622e-01
  9.791374e-01
  9.593370e-01
  9.164444e-01
  8.424968e-01
  7.306374e-01
  5.314796e-01
  2.845999e-01
  1.213870e-01
  5.316067e-02
  3.638298e-02
  3.672664e-02
  4.415960e-02
  5.800511e-02
  7.437782e-02
  7.560702e-02
  5.979327e-02
  4.457983e-02
  3.644582e-02
  3.672782e-02
  5.822459e-02
  1.469233e-01
  3.593321e-01
  6.049262e-01
  6.935757e-01
  6.066767e-01
  3.575177e-01
  1.407367e-01
  5.072533e-02
  2.692703e-02
  2.475623e-02
  3.816731e-02
  1.049597e-01
  3.265313e-01
  8.142132e-01
  9.654547e-01
  9.943936e-01
  9.962268e-01
  9.848646e-01
  9.264013e-01
  6.843988e-01
  2.026428e-01
  5.677101e-02
  2.856783e-02
  2.604714e-02
  3.084744e-02
  3.857063e-02
  4.723840e-02
  5.633895e-02
  6.593819e-02
  7.571807e-02
  8.409195e-02
  8.790118e-02
  8.374611e-02
  7.046889e-02
  5.095977e-02
  3.300846e-02
  2.377665e-02
  2.400095e-02
  4.424206e-02
  1.284340e-01
  3.736483e-01
  7.313162e-01
  9.112554e-01
  9.696264e-01
  9.850445e-01
  9.862479e-01
  9.806000e-01
  9.681545e-01
  9.431433e-01
  8.789938e-01
  7.077460e-01
  3.558593e-01
  1.155198e-01
  5.300063e-02
  4.740178e-02
  6.597943e-02
  1.176131e-01
  1.966645e-01
  2.047546e-01
  1.302793e-01
  7.078012e-02
  4.773217e-02
  5.159988e-02
  1.172455e-01
  3.838809e-01
  7.547881e-01
  9.077653e-01
  9.422559e-01
  9.077366e-01
  7.501823e-01
  3.682551e-01
  1.043893e-01
  3.599200e-02
  2.488628e-02
  3.482128e-02
  8.978729e-02
  2.011988e-01
  6.136917e-01
  8.676842e-01
  9.437791e-01
  9.537683e-01
  9.208210e-01
  7.921273e-01
  4.482840e-01
  1.459003e-01
  7.411742e-02
  7.269093e-02
  9.438723e-02
  1.313885e-01
  1.730694e-01
  2.108073e-01
  2.448524e-01
  2.783433e-01
  3.119061e-01
  3.399407e-01
  3.497591e-01
  3.269682e-01
  2.640856e-01
  1.681807e-01
  7.817393e-02
  3.667354e-02
  2.344025e-02
  2.387751e-02
  4.527144e-02
  1.281469e-01
  3.622903e-01
  7.168143e-01
  9.048788e-01
  9.688695e-01
  9.881364e-01
  9.937499e-01
  9.946780e-01
  9.915651e-01
  9.766828e-01
  9.112114e-01
  6.662023e-01
  2.194957e-01
  7.981566e-02
  6.577958e-02
  1.144455e-01
  2.883946e-01
  5.770962e-01
  6.022695e-01
  3.360346e-01
  1.280941e-01
  6.528320e-02
  7.225312e-02
  2.028406e-01
  6.592058e-01
  9.174237e-01
  9.832270e-01
  9.943951e-01
  9.825545e-01
  9.143209e-01
  6.485171e-01
  1.910925e-01
  5.015540e-02
  2.403322e-02
  2.747592e-02
  6.016794e-02
  8.609695e-02
  2.536411e-01
  5.256363e-01
  7.060183e-01
  7.418190e-01
  6.588144e-01
  4.398757e-01
  2.229078e-01
  1.608824e-01
  2.112469e-01
  2.936147e-01
  4.088865e-01
  5.576434e-01
  6.809904e-01
  7.531229e-01
  7.933170e-01
  8.193187e-01
  8.387279e-01
  8.524300e-01
  8.568294e-01
  8.416359e-01
  7.724953e-01
  5.586041e-01
  2.280306e-01
  7.286921e-02
  3.092295e-02
  2.054870e-02
  2.207024e-02
  4.272814e-02
  1.198699e-01
  3.389861e-01
  6.932230e-01
  8.940866e-01
  9.660565e-01
  9.897186e-01
  9.978715e-01
  9.999000e-01
  9.977660e-01
  9.654589e-01
  7.985390e-01
  2.964481e-01
  1.013311e-01
  8.151852e-02
  1.623754e-01
  4.640337e-01
  8.185358e-01
  8.409116e-01
  5.422706e-01
  1.843273e-01
  7.945485e-02
  8.725401e-02
  2.628293e-01
  7.801639e-01
  9.607640e-01
  9.966631e-01
  9.999000e-01
  9.960531e-01
  9.620243e-01
  7.958350e-01
  2.936269e-01
  6.921641e-02
  2.330785e-02
  1.980600e-02
  3.342898e-02
  3.380110e-02
  7.320283e-02
  1.406770e-01
  2.001672e-01
  2.180241e-01
  1.922292e-01
  1.492317e-01
  1.681888e-01
  3.721313e-01
  6.553199e-01
  7.982515e-01
  8.620559e-01
  9.046474e-01
  9.342534e-01
  9.518681e-01
  9.623898e-01
  9.696405e-01
  9.752426e-01
  9.793387e-01
  9.811515e-01
  9.783780e-01
  9.556904e-01
  8.460856e-01
  4.792309e-01
  1.341105e-01
  4.327156e-02
  2.251097e-02
  1.734573e-02
  1.983485e-02
  3.891069e-02
  1.082982e-01
  3.062724e-01
  6.510038e-01
  8.687559e-01
  9.545414e-01
  9.852915e-01
  9.958751e-01
  9.948223e-01
  9.612032e-01
  7.909817e-01
  2.937513e-01
  1.014244e-01
  7.985939e-02
  1.485988e-01
  4.036394e-01
  7.421998e-01
  7.632897e-01
  4.657914e-01
  1.631716e-01
  7.489816e-02
  8.724499e-02
  2.718538e-01
  7.977261e-01
  9.655116e-01
  9.969918e-01
  9.999000e-01
  9.977546e-01
  9.768810e-01
  8.666935e-01
  4.362490e-01
  1.008477e-01
  2.504021e-02
  1.425066e-02
  1.845667e-02
  1.614824e-02
  2.559097e-02
  3.927190e-02
  5.169274e-02
  5.771145e-02
  6.059709e-02
  8.442937e-02
  2.258351e-01
  6.699086e-01
  9.015157e-01
  9.630212e-01
  9.784599e-01
  9.847997e-01
  9.887784e-01
  9.915624e-01
  9.938920e-01
  9.961797e-01
  9.983495e-01
  9.998756e-01
  9.999000e-01
  9.999000e-01
  9.919953e-01
  9.265897e-01
  6.325134e-01
  1.777727e-01
  5.208251e-02
  2.484399e-02
  1.749479e-02
  1.522130e-02
  1.803973e-02
  3.476132e-02
  9.287716e-02
  2.543662e-01
  5.581944e-01
  8.011048e-01
  9.120672e-01
  9.512560e-01
  9.483362e-01
  8.794052e-01
  6.284037e-01
  2.110263e-01
  8.078001e-02
  6.475853e-02
  9.552175e-02
  1.934407e-01
  3.438630e-01
  3.549400e-01
  2.106696e-01
  9.664394e-02
  5.787005e-02
  7.388272e-02
  2.330161e-01
  7.443020e-01
  9.498941e-01
  9.927058e-01
  9.992044e-01
  9.977090e-01
  9.840250e-01
  9.140956e-01
  6.112403e-01
  1.546114e-01
  3.244946e-02
  1.141426e-02
  1.110441e-02
  9.596171e-03
  1.325675e-02
  1.755855e-02
  2.175570e-02
  2.608078e-02
  3.570223e-02
  7.802929e-02
  2.743170e-01
  7.915560e-01
  9.639926e-01
  9.969227e-01
  9.999000e-01
  9.990082e-01
  9.973622e-01
  9.960426e-01
  9.955924e-01
  9.962427e-01
  9.976762e-01
  9.991733e-01
  9.999000e-01
  9.991311e-01
  9.854775e-01
  9.060375e-01
  5.832319e-01
  1.628271e-01
  4.992380e-02
  2.543121e-02
  1.863431e-02
  1.568570e-02
  1.472912e-02
  1.755322e-02
  3.092861e-02
  7.279260e-02
  1.776578e-01
  3.728237e-01
  6.126315e-01
  7.340739e-01
  7.274286e-01
  5.742628e-01
  2.903704e-01
  1.069001e-01
  5.615324e-02
  5.075385e-02
  6.235678e-02
  8.964183e-02
  1.247729e-01
  1.268871e-01
  9.173849e-02
  5.941589e-02
  4.442374e-02
  5.584249e-02
  1.648412e-01
  5.910542e-01
  9.026895e-01
  9.811002e-01
  9.962773e-01
  9.970013e-01
  9.883520e-01
  9.455690e-01
  7.498530e-01
  2.480910e-01
  5.332867e-02
  1.295727e-02
  7.676712e-03
  6.992414e-03
  8.946076e-03
  1.171646e-02
  1.486079e-02
  1.919266e-02
  2.958825e-02
  7.132554e-02
  2.596314e-01
  7.747263e-01
  9.592461e-01
  9.957584e-01
  9.987646e-01
  9.949293e-01
  9.889281e-01
  9.819201e-01
  9.757625e-01
  9.726976e-01
  9.727804e-01
  9.740890e-01
  9.735240e-01
  9.642599e-01
  9.210687e-01
  7.602791e-01
  3.596396e-01
  1.047461e-01
  3.980712e-02
  2.479690e-02
  2.046915e-02
  1.902932e-02
  1.909117e-02
  2.027066e-02
  2.373061e-02
  3.363386e-02
  5.828576e-02
  1.074147e-01
  1.770950e-01
  2.247248e-01
  2.211057e-01
  1.663950e-01
  9.419242e-02
  5.297082e-02
  4.138527e-02
  4.184791e-02
  4.722604e-02
  5.605436e-02
  6.591692e-02
  6.881560e-02
  6.139112e-02
  4.966751e-02
  3.968158e-02
  4.162309e-02
  9.621113e-02
  3.517910e-01
  7.903433e-01
  9.513809e-01
  9.888314e-01
  9.952745e-01
  9.910763e-01
  9.664758e-01
  8.509206e-01
  4.402520e-01
  1.143861e-01
  2.625460e-02
  8.585657e-03
  8.824549e-03
  7.480272e-03
  9.132600e-03
  1.190152e-02
  1.596136e-02
  2.445229e-02
  5.384904e-02
  1.808915e-01
  5.978108e-01
  8.721454e-01
  9.500290e-01
  9.628742e-01
  9.547155e-01
  9.339867e-01
  9.013661e-01
  8.658899e-01
  8.425958e-01
  8.340629e-01
  8.321510e-01
  8.240056e-01
  7.863211e-01
  6.621053e-01
  3.888402e-01
  1.492041e-01
  5.605647e-02
  3.122389e-02
  2.531057e-02
  2.568888e-02
  3.160904e-02
  4.264182e-02
  5.365034e-02
  6.169754e-02
  6.808239e-02
  7.547040e-02
  8.516083e-02
  9.360372e-02
  9.116802e-02
  7.646289e-02
  5.812814e-02
  4.300357e-02
  3.573935e-02
  3.473304e-02
  3.674552e-02
  4.070938e-02
  4.794905e-02
  6.150732e-02
  7.907876e-02
  8.667184e-02
  7.683811e-02
  5.598403e-02
  4.077201e-02
  5.625127e-02
  1.758235e-01
  5.586920e-01
  8.713184e-01
  9.673360e-01
  9.899366e-01
  9.920769e-01
  9.807346e-01
  9.263423e-01
  7.067403e-01
  2.781278e-01
  7.640930e-02
  2.125339e-02
  2.492664e-02
  1.124519e-02
  8.745687e-03
  1.000640e-02
  1.313459e-02
  1.889481e-02
  3.379393e-02
  8.655064e-02
  2.636790e-01
  5.557415e-01
  7.309692e-01
  7.746646e-01
  7.521488e-01
  6.781915e-01
  5.509980e-01
  4.168785e-01
  3.376994e-01
  3.085361e-01
  3.006698e-01
  2.897344e-01
  2.577183e-01
  1.952474e-01
  1.139050e-01
  5.728182e-02
  3.458534e-02
  2.840990e-02
  3.038014e-02
  4.481007e-02
  8.675128e-02
  1.578566e-01
  2.225766e-01
  2.628314e-01
  2.834334e-01
  2.902256e-01
  2.814583e-01
  2.471733e-01
  1.795752e-01
  1.002923e-01
  5.302831e-02
  3.595117e-02
  3.170582e-02
  3.194261e-02
  3.422522e-02
  4.022677e-02
  5.927772e-02
  1.149468e-01
  2.073402e-01
  2.621648e-01
  2.389418e-01
  1.550626e-01
  7.446471e-02
  4.597614e-02
  8.158467e-02
  2.678319e-01
  6.680868e-01
  8.997608e-01
  9.709447e-01
  9.883861e-01
  9.877329e-01
  9.674070e-01
  8.809867e-01
  6.070549e-01
  2.394395e-01
  7.552922e-02
  9.631507e-02
  3.599672e-02
  1.650264e-02
  1.142664e-02
  1.177691e-02
  1.492201e-02
  2.151233e-02
  3.774646e-02
  7.999606e-02
  1.523564e-01
  2.104058e-01
  2.268957e-01
  2.091284e-01
  1.719393e-01
  1.285932e-01
  9.424592e-02
  7.766621e-02
  7.426445e-02
  7.588674e-02
  7.590712e-02
  7.024763e-02
  5.819420e-02
  4.340758e-02
  3.310637e-02
  2.917111e-02
  3.110269e-02
  4.664837e-02
  1.107347e-01
  3.011005e-01
  5.801154e-01
  7.476783e-01
  8.077459e-01
  8.261325e-01
  8.285867e-01
  8.151430e-01
  7.601621e-01
  5.951733e-01
  3.053379e-01
  1.099970e-01
  4.766911e-02
  3.318856e-02
  3.122437e-02
  3.406164e-02
  4.782991e-02
  1.082640e-01
  3.239846e-01
  6.401648e-01
  7.707990e-01
  7.354520e-01
  5.168080e-01
  2.105025e-01
  7.015032e-02
  4.730170e-02
  1.051771e-01
  3.249881e-01
  7.011693e-01
  9.029037e-01
  9.685522e-01
  9.857054e-01
  9.837671e-01
  9.576584e-01
  8.609709e-01
  6.039949e-01
  2.657994e-01
  3.469457e-01
  1.471901e-01
  6.160604e-02
  2.970052e-02
  1.863426e-02
  1.619059e-02
  1.755890e-02
  2.194534e-02
  3.071470e-02
  4.328028e-02
  5.236802e-02
  5.315662e-02
  4.720242e-02
  3.841022e-02
  3.050717e-02
  2.680594e-02
  2.879597e-02
  3.461457e-02
  4.009237e-02
  4.174894e-02
  3.916298e-02
  3.487964e-02
  3.118896e-02
  2.919008e-02
  2.993502e-02
  3.868176e-02
  8.260158e-02
  2.676010e-01
  6.807469e-01
  8.901315e-01
  9.532877e-01
  9.697964e-01
  9.737703e-01
  9.740982e-01
  9.707555e-01
  9.546185e-01
  8.896705e-01
  6.688745e-01
  2.497595e-01
  7.816749e-02
  3.881172e-02
  3.194744e-02
  3.574740e-02
  6.272737e-02
  1.950721e-01
  6.348851e-01
  8.968677e-01
  9.613450e-01
  9.493322e-01
  8.373661e-01
  4.806696e-01
  1.328183e-01
  4.535164e-02
  4.518235e-02
  1.149108e-01
  3.328199e-01
  6.889326e-01
  8.900911e-01
  9.614163e-01
  9.821969e-01
  9.816260e-01
  9.572611e-01
  8.755466e-01
  6.694676e-01
  7.657467e-01
  5.071523e-01
  2.573988e-01
  1.274402e-01
  6.657267e-02
  4.028534e-02
  2.787840e-02
  2.256832e-02
  2.126874e-02
  2.177065e-02
  2.172920e-02
  2.015740e-02
  1.773350e-02
  1.595146e-02
  1.683027e-02
  2.344140e-02
  3.928877e-02
  6.142269e-02
  7.632367e-02
  7.353028e-02
  5.632873e-02
  4.036669e-02
  3.284016e-02
  3.044597e-02
  3.247710e-02
  4.837818e-02
  1.301099e-01
  4.620815e-01
  8.639226e-01
  9.742083e-01
  9.954222e-01
  9.983555e-01
  9.985440e-01
  9.985358e-01
  9.982980e-01
  9.950641e-01
  9.718221e-01
  8.508247e-01
  4.220421e-01
  1.189844e-01
  4.643064e-02
  3.324413e-02
  3.732607e-02
  7.409339e-02
  2.566599e-01
  7.768138e-01
  9.634827e-01
  9.999000e-01
  9.971480e-01
  9.413035e-01
  6.908328e-01
  1.974458e-01
  5.389152e-02
  2.881686e-02
  4.192105e-02
  1.089333e-01
  3.018708e-01
  6.386531e-01
  8.583171e-01
  9.467185e-01
  9.762264e-01
  9.803725e-01
  9.635859e-01
  9.068209e-01
  9.382022e-01
  8.622306e-01
  7.194460e-01
  4.947915e-01
  2.895482e-01
  1.709322e-01
  9.553623e-02
  5.184009e-02
  2.989232e-02
  2.108146e-02
  1.740036e-02
  1.510391e-02
  1.370634e-02
  1.465345e-02
  2.250261e-02
  4.995239e-02
  1.189256e-01
  2.161311e-01
  2.715988e-01
  2.439831e-01
  1.491246e-01
  6.980739e-02
  4.089734e-02
  3.307667e-02
  3.439364e-02
  5.364964e-02
  1.554314e-01
  5.558070e-01
  9.093986e-01
  9.895792e-01
  9.999000e-01
  9.999000e-01
  9.999000e-01
  9.999000e-01
  9.999000e-01
  9.999000e-01
  9.884541e-01
  9.007435e-01
  5.182221e-01
  1.437862e-01
  5.103288e-02
  3.393468e-02
  3.719102e-02
  7.368505e-02
  2.560642e-01
  7.766618e-01
  9.633936e-01
  9.999000e-01
  9.999000e-01
  9.527063e-01
  7.255703e-01
  2.133665e-01
  5.745399e-02
  2.588831e-02
  2.278479e-02
  3.733929e-02
  9.205310e-02
  2.443055e-01
  5.387999e-01
  7.944488e-01
  9.159842e-01
  9.621324e-01
  9.758231e-01
  9.695923e-01
  9.701866e-01
  9.612647e-01
  9.319292e-01
  8.731022e-01
  7.793463e-01
  6.207786e-01
  3.809901e-01
  1.880772e-01
  7.614455e-02
  3.337293e-02
  2.009341e-02
  1.541147e-02
  1.415818e-02
  1.887528e-02
  4.482468e-02
  1.457909e-01
  4.101196e-01
  6.963683e-01
  7.923407e-01
  7.292045e-01
  4.512219e-01
  1.494117e-01
  5.711354e-02
  3.625974e-02
  3.455815e-02
  5.014517e-02
  1.348112e-01
  4.783955e-01
  8.730760e-01
  9.778223e-01
  9.972536e-01
  9.997787e-01
  9.999000e-01
  9.999000e-01
  9.999000e-01
  9.983563e-01
  9.797749e-01
  8.732137e-01
  4.625289e-01
  1.296933e-01
  4.874786e-02
  3.375892e-02
  3.588626e-02
  6.237602e-02
  1.947965e-01
  6.364802e-01
  8.989938e-01
  9.659869e-01
  9.649695e-01
  8.877835e-01
  5.904672e-01
  1.693355e-01
  5.150253e-02
  2.602235e-02
  1.992621e-02
  2.051832e-02
  3.161727e-02
  6.996957e-02
  1.728671e-01
  3.876352e-01
  6.751188e-01
  8.465362e-01
  9.280345e-01
  9.611314e-01
  9.294217e-01
  9.637543e-01
  9.745410e-01
  9.710231e-01
  9.550570e-01
  9.152211e-01
  8.142769e-01
  5.726950e-01
  2.266777e-01
  6.980822e-02
  2.824425e-02
  1.733912e-02
  1.597111e-02
  2.918798e-02
  1.001473e-01
  3.696535e-01
  7.694449e-01
  9.311154e-01
  9.675283e-01
  9.326786e-01
  7.327425e-01
  2.472610e-01
  7.520036e-02
  3.875707e-02
  3.340270e-02
  4.164990e-02
  8.886737e-02
  2.892252e-01
  7.118784e-01
  9.077313e-01
  9.629775e-01
  9.771262e-01
  9.808742e-01
  9.815226e-01
  9.793538e-01
  9.681578e-01
  9.188807e-01
  7.309405e-01
  2.961894e-01
  9.050248e-02
  4.322794e-02
  3.603600e-02
  3.890508e-02
  5.258722e-02
  1.127294e-01
  3.311733e-01
  6.512926e-01
  7.909239e-01
  7.880350e-01
  6.354247e-01
  3.030614e-01
  9.897675e-02
  4.299529e-02
  2.840025e-02
  2.260253e-02
  1.937324e-02
  1.917868e-02
  2.573610e-02
  4.837019e-02
  1.068640e-01
  2.342699e-01
  4.589247e-01
  7.059545e-01
  8.519853e-01
  7.258579e-01
  8.804876e-01
  9.529496e-01
  9.817216e-01
  9.911479e-01
  9.884802e-01
  9.620741e-01
  8.508219e-01
  4.883361e-01
  1.351277e-01
  4.130058e-02
  2.022013e-02
  1.979323e-02
  5.110028e-02
  2.076226e-01
  6.580663e-01
  9.183820e-01
  9.875328e-01
  9.994143e-01
  9.728925e-01
  8.139581e-01
  2.899083e-01
  8.207000e-02
  3.908536e-02
  3.221125e-02
  3.487138e-02
  5.276263e-02
  1.270543e-01
  3.477755e-01
  6.405689e-01
  7.887881e-01
  8.408697e-01
  8.586634e-01
  8.615413e-01
  8.499472e-01
  8.072670e-01
  6.757301e-01
  3.825262e-01
  1.379962e-01
  5.823832e-02
  4.570040e-02
  5.587235e-02
  6.961873e-02
  7.721780e-02
  8.666449e-02
  1.291319e-01
  2.152825e-01
  2.783777e-01
  2.764189e-01
  2.073239e-01
  1.139911e-01
  6.476271e-02
  4.896545e-02
  4.080222e-02
  3.244951e-02
  2.479533e-02
  1.982752e-02
  1.810006e-02
  2.072787e-02
  3.160764e-02
  5.965734e-02
  1.221018e-01
  2.456442e-01
  4.695712e-01
  2.865790e-01
  5.816608e-01
  8.262319e-01
  9.411038e-01
  9.844146e-01
  9.988540e-01
  9.934908e-01
  9.324261e-01
  6.546372e-01
  1.857682e-01
  5.141162e-02
  2.328457e-02
  2.869824e-02
  9.742293e-02
  3.874492e-01
  8.259814e-01
  9.660713e-01
  9.972175e-01
  9.985933e-01
  9.652078e-01
  7.890592e-01
  2.651695e-01
  7.519582e-02
  3.803539e-02
  3.263298e-02
  3.293083e-02
  3.720788e-02
  5.492034e-02
  1.062604e-01
  1.915234e-01
  2.697158e-01
  3.256615e-01
  3.582020e-01
  3.648514e-01
  3.424889e-01
  2.901633e-01
  2.100592e-01
  1.179640e-01
  6.143824e-02
  5.145943e-02
  8.235334e-02
  1.587368e-01
  2.301684e-01
  2.433347e-01
  1.928988e-01
  1.209727e-01
  9.000866e-02
  8.737211e-02
  8.584623e-02
  8.003589e-02
  8.216979e-02
  9.867317e-02
  1.105139e-01
  1.001620e-01
  7.224178e-02
  4.379841e-02
  2.713612e-02
  1.995820e-02
  1.721949e-02
  1.724083e-02
  2.099801e-02
  3.223446e-02
  6.006757e-02
  1.285491e-01
  7.618806e-02
  1.973970e-01
  4.669606e-01
  7.682360e-01
  9.144310e-01
  9.657807e-01
  9.691639e-01
  8.997000e-01
  6.004274e-01
  1.710132e-01
  4.981524e-02
  2.732079e-02
  5.177214e-02
  1.982309e-01
  6.364935e-01
  9.128730e-01
  9.820447e-01
  9.951088e-01
  9.863783e-01
  9.256992e-01
  6.673890e-01
  1.979603e-01
  6.238367e-02
  4.006421e-02
  3.874309e-02
  3.788167e-02
  3.590789e-02
  3.656840e-02
  4.369672e-02
  5.750091e-02
  7.194190e-02
  8.347645e-02
  9.079128e-02
  9.267744e-02
  8.815029e-02
  7.727189e-02
  6.173937e-02
  4.677017e-02
  4.473273e-02
  7.920465e-02
  2.246161e-01
  5.300101e-01
  7.319479e-01
  7.534295e-01
  6.065528e-01
  2.975053e-01
  1.064797e-01
  5.674682e-02
  5.346077e-02
  8.100085e-02
  1.722787e-01
  3.046683e-01
  3.841116e-01
  3.557783e-01
  2.429012e-01
  1.165903e-01
  4.879639e-02
  2.658735e-02
  1.963089e-02
  1.687767e-02
  1.559970e-02
  1.582471e-02
  1.959512e-02
  3.348321e-02
  2.449194e-02
  5.525048e-02
  1.455629e-01
  3.512676e-01
  6.347920e-01
  7.832059e-01
  8.017381e-01
  6.765863e-01
  3.365284e-01
  1.037082e-01
  4.028759e-02
  3.951880e-02
  1.139202e-01
  4.010803e-01
  8.156223e-01
  9.559270e-01
  9.868306e-01
  9.877384e-01
  9.597834e-01
  8.295827e-01
  4.288067e-01
  1.231966e-01
  5.755991e-02
  6.018848e-02
  6.859830e-02
  6.221681e-02
  4.738003e-02
  3.745328e-02
  3.297413e-02
  3.181786e-02
  3.219474e-02
  3.324214e-02
  3.449389e-02
  3.534783e-02
  3.523069e-02
  3.401409e-02
  3.248245e-02
  3.381116e-02
  5.092800e-02
  1.411238e-01
  4.877774e-01
  8.425586e-01
  9.501032e-01
  9.577616e-01
  8.827806e-01
  5.980631e-01
  1.823151e-01
  6.707710e-02
  6.389902e-02
  1.545351e-01
  4.748861e-01
  7.695179e-01
  8.594031e-01
  8.409645e-01
  6.963536e-01
  3.497098e-01
  1.066505e-01
  3.995988e-02
  2.438852e-02
  2.011285e-02
  1.816779e-02
  1.658595e-02
  1.536276e-02
  1.622300e-02
  1.896129e-02
  2.313041e-02
  4.321136e-02
  9.461403e-02
  1.816333e-01
  2.578698e-01
  2.773499e-01
  2.182837e-01
  1.142985e-01
  5.202558e-02
  3.909316e-02
  8.160627e-02
  2.737585e-01
  6.910241e-01
  9.177209e-01
  9.764420e-01
  9.863486e-01
  9.735715e-01
  9.031806e-01
  6.371553e-01
  2.227562e-01
  8.271195e-02
  8.898111e-02
  1.601527e-01
  2.057781e-01
  1.673125e-01
  9.048822e-02
  5.038691e-02
  3.504641e-02
  2.895153e-02
  2.670965e-02
  2.701735e-02
  2.912558e-02
  3.136076e-02
  3.211146e-02
  3.111007e-02
  3.010834e-02
  3.380740e-02
  5.970005e-02
  1.922604e-01
  6.620664e-01
  9.352584e-01
  9.972030e-01
  9.999000e-01
  9.557385e-01
  7.447038e-01
  2.378567e-01
  8.004085e-02
  8.287452e-02