# vtk DataFile Version 2.0
time_10.vtk
ASCII
DATASET STRUCTURED_GRID
DIMENSIONS    64    64     1
POINTS    4096 float
  0.000000e+00   0.000000e+00   0.000000e+00
  0.000000e+00   1.000000e+00   0.000000e+00
  0.000000e+00   2.000000e+00   0.000000e+00
  0.000000e+00   3.000000e+00   0.000000e+00
  0.000000e+00   4.000000e+00   0.000000e+00
  0.000000e+00   5.000000e+00   0.000000e+00
  0.000000e+00   6.000000e+00   0.000000e+00
  0.000000e+00   7.000000e+00   0.000000e+00
  0.000000e+00   8.000000e+00   0.000000e+00
  0.000000e+00   9.000000e+00   0.000000e+00
  0.000000e+00   1.000000e+01   0.000000e+00
  0.000000e+00   1.100000e+01   0.000000e+00
  0.000000e+00   1.200000e+01   0.000000e+00
  0.000000e+00   1.300000e+01   0.000000e+00
  0.000000e+00   1.400000e+01   0.000000e+00
  0.000000e+00   1.500000e+01   0.000000e+00
  0.000000e+00   1.600000e+01   0.000000e+00
  0.000000e+00   1.700000e+01   0.000000e+00
  0.000000e+00   1.800000e+01   0.000000e+00
  0.000000e+00   1.900000e+01   0.000000e+00
  0.000000e+00   2.000000e+01   0.000000e+00
  0.000000e+00   2.100000e+01   0.000000e+00
  0.000000e+00   2.200000e+01   0.000000e+00
  0.000000e+00   2.300000e+01   0.000000e+00
  0.000000e+00   2.400000e+01   0.000000e+00
  0.000000e+00   2.500000e+01   0.000000e+00
  0.000000e+00   2.600000e+01   0.000000e+00
  0.000000e+00   2.700000e+01   0.000000e+00
  0.000000e+00   2.800000e+01   0.000000e+00
  0.000000e+00   2.900000e+01   0.000000e+00
  0.000000e+00   3.000000e+01   0.000000e+00
  0.000000e+00   3.100000e+01   0.000000e+00
  0.000000e+00   3.200000e+01   0.000000e+00
  0.000000e+00   3.300000e+01   0.000000e+00
  0.000000e+00   3.400000e+01   0.000000e+00
  0.000000e+00   3.500000e+01   0.000000e+00
  0.000000e+00   3.600000e+01   0.000000e+00
  0.000000e+00   3.700000e+01   0.000000e+00
  0.000000e+00   3.800000e+01   0.000000e+00
  0.000000e+00   3.900000e+01   0.000000e+00
  0.000000e+00   4.000000e+01   0.000000e+00
  0.000000e+00   4.100000e+01   0.000000e+00
  0.000000e+00   4.200000e+01   0.000000e+00
  0.000000e+00   4.300000e+01   0.000000e+00
  0.000000e+00   4.400000e+01   0.000000e+00
  0.000000e+00   4.500000e+01   0.000000e+00
  0.000000e+00   4.600000e+01   0.000000e+00
  0.000000e+00   4.700000e+01   0.000000e+00
  0.000000e+00   4.800000e+01   0.000000e+00
  0.000000e+00   4.900000e+01   0.000000e+00
  0.000000e+00   5.000000e+01   0.000000e+00
  0.000000e+00   5.100000e+01   0.000000e+00
  0.000000e+00   5.200000e+01   0.000000e+00
  0.000000e+00   5.300000e+01   0.000000e+00
  0.000000e+00   5.400000e+01   0.000000e+00
  0.000000e+00   5.500000e+01   0.000000e+00
  0.000000e+00   5.600000e+01   0.000000e+00
  0.000000e+00   5.700000e+01   0.000000e+00
  0.000000e+00   5.800000e+01   0.000000e+00
  0.000000e+00   5.900000e+01   0.000000e+00
  0.000000e+00   6.000000e+01   0.000000e+00
  0.000000e+00   6.100000e+01   0.000000e+00
  0.000000e+00   6.200000e+01   0.000000e+00
  0.000000e+00   6.300000e+01   0.000000e+00
  1.000000e+00   0.000000e+00   0.000000e+00
  1.000000e+00   1.000000e+00   0.000000e+00
  1.000000e+00   2.000000e+00   0.000000e+00
  1.000000e+00   3.000000e+00   0.000000e+00
  1.000000e+00   4.000000e+00   0.000000e+00
  1.000000e+00   5.000000e+00   0.000000e+00
  1.000000e+00   6.000000e+00   0.000000e+00
  1.000000e+00   7.000000e+00   0.000000e+00
  1.000000e+00   8.000000e+00   0.000000e+00
  1.000000e+00   9.000000e+00   0.000000e+00
  1.000000e+00   1.000000e+01   0.000000e+00
  1.000000e+00   1.100000e+01   0.000000e+00
  1.000000e+00   1.200000e+01   0.000000e+00
  1.000000e+00   1.300000e+01   0.000000e+00
  1.000000e+00   1.400000e+01   0.000000e+00
  1.000000e+00   1.500000e+01   0.000000e+00
  1.000000e+00   1.600000e+01   0.000000e+00
  1.000000e+00   1.700000e+01   0.000000e+00
  1.000000e+00   1.800000e+01   0.000000e+00
  1.000000e+00   1.900000e+01   0.000000e+00
  1.000000e+00   2.000000e+01   0.000000e+00
  1.000000e+00   2.100000e+01   0.000000e+00
  1.000000e+00   2.200000e+01   0.000000e+00
  1.000000e+00   2.300000e+01   0.000000e+00
  1.000000e+00   2.400000e+01   0.000000e+00
  1.000000e+00   2.500000e+01   0.000000e+00
  1.000000e+00   2.600000e+01   0.000000e+00
  1.000000e+00   2.700000e+01   0.000000e+00
  1.000000e+00   2.800000e+01   0.000000e+00
  1.000000e+00   2.900000e+01   0.000000e+00
  1.000000e+00   3.000000e+01   0.000000e+00
  1.000000e+00   3.100000e+01   0.000000e+00
  1.000000e+00   3.200000e+01   0.000000e+00
  1.000000e+00   3.300000e+01   0.000000e+00
  1.000000e+00   3.400000e+01   0.000000e+00
  1.000000e+00   3.500000e+01   0.000000e+00
  1.000000e+00   3.600000e+01   0.000000e+00
  1.000000e+00   3.700000e+01   0.000000e+00
  1.000000e+00   3.800000e+01   0.000000e+00
  1.000000e+00   3.900000e+01   0.000000e+00
  1.000000e+00   4.000000e+01   0.000000e+00
  1.000000e+00   4.100000e+01   0.000000e+00
  1.000000e+00   4.200000e+01   0.000000e+00
  1.000000e+00   4.300000e+01   0.000000e+00
  1.000000e+00   4.400000e+01   0.000000e+00
  1.000000e+00   4.500000e+01   0.000000e+00
  1.000000e+00   4.600000e+01   0.000000e+00
  1.000000e+00   4.700000e+01   0.000000e+00
  1.000000e+00   4.800000e+01   0.000000e+00
  1.000000e+00   4.900000e+01   0.000000e+00
  1.000000e+00   5.000000e+01   0.000000e+00
  1.000000e+00   5.100000e+01   0.000000e+00
  1.000000e+00   5.200000e+01   0.000000e+00
  1.000000e+00   5.300000e+01   0.000000e+00
  1.000000e+00   5.400000e+01   0.000000e+00
  1.000000e+00   5.500000e+01   0.000000e+00
  1.000000e+00   5.600000e+01   0.000000e+00
  1.000000e+00   5.700000e+01   0.000000e+00
  1.000000e+00   5.800000e+01   0.000000e+00
  1.000000e+00   5.900000e+01   0.000000e+00
  1.000000e+00   6.000000e+01   0.000000e+00
  1.000000e+00   6.100000e+01   0.000000e+00
  1.000000e+00   6.200000e+01   0.000000e+00
  1.000000e+00   6.300000e+01   0.000000e+00
  2.000000e+00   0.000000e+00   0.000000e+00
  2.000000e+00   1.000000e+00   0.000000e+00
  2.000000e+00   2.000000e+00   0.000000e+00
  2.000000e+00   3.000000e+00   0.000000e+00
  2.000000e+00   4.000000e+00   0.000000e+00
  2.000000e+00   5.000000e+00   0.000000e+00
  2.000000e+00   6.000000e+00   0.000000e+00
  2.000000e+00   7.000000e+00   0.000000e+00
  2.000000e+00   8.000000e+00   0.000000e+00
  2.000000e+00   9.000000e+00   0.000000e+00
  2.000000e+00   1.000000e+01   0.000000e+00
  2.000000e+00   1.100000e+01   0.000000e+00
  2.000000e+00   1.200000e+01   0.000000e+00
  2.000000e+00   1.300000e+01   0.000000e+00
  2.000000e+00   1.400000e+01   0.000000e+00
  2.000000e+00   1.500000e+01   0.000000e+00
  2.000000e+00   1.600000e+01   0.000000e+00
  2.000000e+00   1.700000e+01   0.000000e+00
  2.000000e+00   1.800000e+01   0.000000e+00
  2.000000e+00   1.900000e+01   0.000000e+00
  2.000000e+00   2.000000e+01   0.000000e+00
  2.000000e+00   2.100000e+01   0.000000e+00
  2.000000e+00   2.200000e+01   0.000000e+00
  2.000000e+00   2.300000e+01   0.000000e+00
  2.000000e+00   2.400000e+01   0.000000e+00
  2.000000e+00   2.500000e+01   0.000000e+00
  2.000000e+00   2.600000e+01   0.000000e+00
  2.000000e+00   2.700000e+01   0.000000e+00
  2.000000e+00   2.800000e+01   0.000000e+00
  2.000000e+00   2.900000e+01   0.000000e+00
  2.000000e+00   3.000000e+01   0.000000e+00
  2.000000e+00   3.100000e+01   0.000000e+00
  2.000000e+00   3.200000e+01   0.000000e+00
  2.000000e+00   3.300000e+01   0.000000e+00
  2.000000e+00   3.400000e+01   0.000000e+00
  2.000000e+00   3.500000e+01   0.000000e+00
  2.000000e+00   3.600000e+01   0.000000e+00
  2.000000e+00   3.700000e+01   0.000000e+00
  2.000000e+00   3.800000e+01   0.000000e+00
  2.000000e+00   3.900000e+01   0.000000e+00
  2.000000e+00   4.000000e+01   0.000000e+00
  2.000000e+00   4.100000e+01   0.000000e+00
  2.000000e+00   4.200000e+01   0.000000e+00
  2.000000e+00   4.300000e+01   0.000000e+00
  2.000000e+00   4.400000e+01   0.000000e+00
  2.000000e+00   4.500000e+01   0.000000e+00
  2.000000e+00   4.600000e+01   0.000000e+00
  2.000000e+00   4.700000e+01   0.000000e+00
  2.000000e+00   4.800000e+01   0.000000e+00
  2.000000e+00   4.900000e+01   0.000000e+00
  2.000000e+00   5.000000e+01   0.000000e+00
  2.000000e+00   5.100000e+01   0.000000e+00
  2.000000e+00   5.200000e+01   0.000000e+00
  2.000000e+00   5.300000e+01   0.000000e+00
  2.000000e+00   5.400000e+01   0.000000e+00
  2.000000e+00   5.500000e+01   0.000000e+00
  2.000000e+00   5.600000e+01   0.000000e+00
  2.000000e+00   5.700000e+01   0.000000e+00
  2.000000e+00   5.800000e+01   0.000000e+00
  2.000000e+00   5.900000e+01   0.000000e+00
  2.000000e+00   6.000000e+01   0.000000e+00
  2.000000e+00   6.100000e+01   0.000000e+00
  2.000000e+00   6.200000e+01   0.000000e+00
  2.000000e+00   6.300000e+01   0.000000e+00
  3.000000e+00   0.000000e+00   0.000000e+00
  3.000000e+00   1.000000e+00   0.000000e+00
  3.000000e+00   2.000000e+00   0.000000e+00
  3.000000e+00   3.000000e+00   0.000000e+00
  3.000000e+00   4.000000e+00   0.000000e+00
  3.000000e+00   5.000000e+00   0.000000e+00
  3.000000e+00   6.000000e+00   0.000000e+00
  3.000000e+00   7.000000e+00   0.000000e+00
  3.000000e+00   8.000000e+00   0.000000e+00
  3.000000e+00   9.000000e+00   0.000000e+00
  3.000000e+00   1.000000e+01   0.000000e+00
  3.000000e+00   1.100000e+01   0.000000e+00
  3.000000e+00   1.200000e+01   0.000000e+00
  3.000000e+00   1.300000e+01   0.000000e+00
  3.000000e+00   1.400000e+01   0.000000e+00
  3.000000e+00   1.500000e+01   0.000000e+00
  3.000000e+00   1.600000e+01   0.000000e+00
  3.000000e+00   1.700000e+01   0.000000e+00
  3.000000e+00   1.800000e+01   0.000000e+00
  3.000000e+00   1.900000e+01   0.000000e+00
  3.000000e+00   2.000000e+01   0.000000e+00
  3.000000e+00   2.100000e+01   0.000000e+00
  3.000000e+00   2.200000e+01   0.000000e+00
  3.000000e+00   2.300000e+01   0.000000e+00
  3.000000e+00   2.400000e+01   0.000000e+00
  3.000000e+00   2.500000e+01   0.000000e+00
  3.000000e+00   2.600000e+01   0.000000e+00
[...]
POINT_DATA  4096
SCALARS CON float 1
LOOKUP_TABLE default
  2.232755e-01
  1.893158e-01
  2.287125e-01
  4.104171e-01
  6.736292e-01
  7.203742e-01
  5.405915e-01
  3.114747e-01
  2.389603e-01
  2.741658e-01
  3.881305e-01
  4.937203e-01
  4.859931e-01
  4.028275e-01
  3.396585e-01
  3.182472e-01
  3.218753e-01
  3.306187e-01
  3.377834e-01
  3.539834e-01
  3.757101e-01
  3.729388e-01
  3.344533e-01
  2.917225e-01
  2.758914e-01
  3.012845e-01
  3.768996e-01
  4.823888e-01
  5.462986e-01
  5.406734e-01
  5.174937e-01
  5.340449e-01
  5.804434e-01
  5.916135e-01
  5.215560e-01
  3.902001e-01
  2.767167e-01
  2.292023e-01
  2.437822e-01
  3.211279e-01
  4.593887e-01
  5.660396e-01
  5.414951e-01
  4.176614e-01
  3.218052e-01
  3.025631e-01
  3.322423e-01
  3.595812e-01
  3.454207e-01
  3.027606e-01
  2.706839e-01
  2.626252e-01
  2.852192e-01
  3.645860e-01
  5.195005e-01
  6.462590e-01
  6.409519e-01
  5.099046e-01
  3.720787e-01
  3.284075e-01
  3.718772e-01
  4.502792e-01
  4.406922e-01
  3.231944e-01
  2.115416e-01
  1.836657e-01
  2.182152e-01
  3.733067e-01
  6.231032e-01
  6.762704e-01
  5.084062e-01
  3.070025e-01
  2.397910e-01
  2.599520e-01
  3.357276e-01
  4.081190e-01
  4.053898e-01
  3.592298e-01
  3.328556e-01
  3.396789e-01
  3.672636e-01
  3.989445e-01
  4.337931e-01
  4.808078e-01
  5.173148e-01
  4.955259e-01
  4.085476e-01
  3.166701e-01
  2.680464e-01
  2.709527e-01
  3.287132e-01
  4.278583e-01
  4.986085e-01
  4.937416e-01
  4.609714e-01
  4.764253e-01
  5.612879e-01
  6.548603e-01
  6.733848e-01
  5.792102e-01
  4.025190e-01
  2.736270e-01
  2.380057e-01
  2.737083e-01
  3.698159e-01
  4.696744e-01
  4.799126e-01
  4.144726e-01
  3.788700e-01
  4.250881e-01
  5.124239e-01
  5.518762e-01
  4.947146e-01
  3.816257e-01
  3.047383e-01
  2.793780e-01
  2.905159e-01
  3.446770e-01
  4.513814e-01
  5.436817e-01
  5.333807e-01
  4.296827e-01
  3.325159e-01
  3.030990e-01
  3.373570e-01
  3.999375e-01
  3.918421e-01
  2.945107e-01
  2.598634e-01
  2.090230e-01
  2.357892e-01
  3.670706e-01
  5.622632e-01
  5.831592e-01
  4.214511e-01
  2.777134e-01
  2.411018e-01
  2.792079e-01
  3.652727e-01
  4.154891e-01
  3.742575e-01
  3.134347e-01
  2.992444e-01
  3.348108e-01
  3.995387e-01
  4.542651e-01
  4.884011e-01
  5.247392e-01
  5.542335e-01
  5.386568e-01
  4.692363e-01
  3.879092e-01
  3.288329e-01
  3.011712e-01
  3.117053e-01
  3.558075e-01
  3.889232e-01
  3.718093e-01
  3.337282e-01
  3.333377e-01
  4.115608e-01
  5.612318e-01
  6.773513e-01
  6.732191e-01
  5.313005e-01
  3.474319e-01
  2.551078e-01
  2.443066e-01
  2.847262e-01
  3.449462e-01
  3.800259e-01
  3.950709e-01
  4.546462e-01
  5.796202e-01
  6.846228e-01
  7.016455e-01
  6.112566e-01
  4.493867e-01
  3.390179e-01
  3.011518e-01
  3.004842e-01
  3.232931e-01
  3.683498e-01
  4.034292e-01
  3.821795e-01
  3.186028e-01
  2.694435e-01
  2.640918e-01
  3.179556e-01
  4.268348e-01
  4.690182e-01
  3.779160e-01
  3.983033e-01
  2.774434e-01
  2.792962e-01
  3.826969e-01
  5.039403e-01
  4.704665e-01
  3.277526e-01
  2.412604e-01
  2.417777e-01
  3.276314e-01
  4.782845e-01
  5.316945e-01
  4.318475e-01
  3.137744e-01
  2.854386e-01
  3.378886e-01
  4.247840e-01
  4.612664e-01
  4.362466e-01
  4.151983e-01
  4.197648e-01
  4.337985e-01
  4.542801e-01
  4.834900e-01
  4.771210e-01
  4.197260e-01
  3.512990e-01
  3.193476e-01
  3.105539e-01
  2.900805e-01
  2.594684e-01
  2.451644e-01
  2.772148e-01
  3.858673e-01
  5.453723e-01
  6.338324e-01
  5.853570e-01
  4.376421e-01
  3.161630e-01
  2.625373e-01
  2.559846e-01
  2.764685e-01
  3.093601e-01
  3.637656e-01
  4.743583e-01
  6.200663e-01
  7.021714e-01
  6.868784e-01
  5.779998e-01
  4.324237e-01
  3.537305e-01
  3.407531e-01
  3.497544e-01
  3.594287e-01
  3.692821e-01
  3.661878e-01
  3.291263e-01
  2.736899e-01
  2.372887e-01
  2.439225e-01
  3.324335e-01
  5.307230e-01
  6.492196e-01
  5.840682e-01
  5.486128e-01
  3.592796e-01
  3.243159e-01
  3.980473e-01
  4.643360e-01
  3.961772e-01
  2.728540e-01
  2.156271e-01
  2.398683e-01
  3.752593e-01
  5.963037e-01
  6.614914e-01
  5.303452e-01
  3.550059e-01
  3.110234e-01
  3.866334e-01
  4.874315e-01
  4.724336e-01
  3.597177e-01
  2.820568e-01
  2.632251e-01
  2.914587e-01
  3.892609e-01
  5.599239e-01
  6.498547e-01
  5.982862e-01
  4.459240e-01
  3.260960e-01
  2.829967e-01
  2.671141e-01
  2.503303e-01
  2.335136e-01
  2.324601e-01
  2.731862e-01
  3.746011e-01
  4.973561e-01
  5.573040e-01
  5.298584e-01
  4.548193e-01
  3.736462e-01
  3.104806e-01
  2.801835e-01
  2.870160e-01
  3.326706e-01
  4.243774e-01
  5.280371e-01
  5.642564e-01
  5.140892e-01
  4.204049e-01
  3.557345e-01
  3.586097e-01
  4.067517e-01
  4.513475e-01
  4.692647e-01
  4.724153e-01
  4.580377e-01
  4.014100e-01
  3.136586e-01
  2.489547e-01
  2.457160e-01
  3.522697e-01
  6.061380e-01
  7.603824e-01
  7.347253e-01
  5.622718e-01
  3.684854e-01
  3.254849e-01
  3.902039e-01
  4.517536e-01
  3.910772e-01
  2.736623e-01
  2.141730e-01
  2.376762e-01
  3.825012e-01
  6.176873e-01
  6.840692e-01
  5.517427e-01
  3.752963e-01
  3.481483e-01
  4.681969e-01
  5.870102e-01
  5.265399e-01
  3.352729e-01
  2.214928e-01
  1.909260e-01
  2.149967e-01
  3.308950e-01
  5.806300e-01
  7.337101e-01
  7.076434e-01
  5.300287e-01
  3.506751e-01
  2.877916e-01
  2.852066e-01
  2.933340e-01
  2.866034e-01
  2.628810e-01
  2.488365e-01
  2.758126e-01
  3.538585e-01
  4.661930e-01
  5.705561e-01
  6.155340e-01
  5.749089e-01
  4.644874e-01
  3.557820e-01
  3.110842e-01
  3.241195e-01
  3.682759e-01
  4.016643e-01
  3.847623e-01
  3.335184e-01
  2.951943e-01
  3.029384e-01
  3.661035e-01
  4.594784e-01
  5.262789e-01
  5.529807e-01
  5.732739e-01
  5.897724e-01
  5.520198e-01
  4.311774e-01
  3.036314e-01
  2.599220e-01
  3.397477e-01
  5.752496e-01
  7.444374e-01
  7.361524e-01
  4.355733e-01
  3.029106e-01
  2.869930e-01
  3.658958e-01
  4.715561e-01
  4.671739e-01
  3.557050e-01
  2.657285e-01
  2.612771e-01
  3.669165e-01
  5.420660e-01
  5.788810e-01
  4.505625e-01
  3.263240e-01
  3.407164e-01
  5.035800e-01
  6.487109e-01
  5.853162e-01
  3.551906e-01
  2.150441e-01
  1.758428e-01
  1.931161e-01
  2.969918e-01
  5.480892e-01
  7.267721e-01
  7.148995e-01
  5.419342e-01
  3.596817e-01
  3.035876e-01
  3.291308e-01
  3.874688e-01
  4.171733e-01
  3.716864e-01
  2.892744e-01
  2.441081e-01
  2.595857e-01
  3.424111e-01
  4.972375e-01
  6.446800e-01
  6.826484e-01
  5.990777e-01
  4.500753e-01
  3.569338e-01
  3.401574e-01
  3.543986e-01
  3.519851e-01
  3.165945e-01
  2.768833e-01
  2.650440e-01
  2.942292e-01
  3.619805e-01
  4.376730e-01
  4.761477e-01
  4.876049e-01
  5.245816e-01
  5.949372e-01
  6.248207e-01
  5.381241e-01
  3.721323e-01
  2.753581e-01
  2.942736e-01
  4.385355e-01
  5.897879e-01
  5.870495e-01
  3.080675e-01
  2.475871e-01
  2.531875e-01
  3.408441e-01
  4.989728e-01
  5.849680e-01
  5.257984e-01
  4.094977e-01
  3.541140e-01
  3.886886e-01
  4.527154e-01
  4.243999e-01
  3.196386e-01
  2.552954e-01
  2.910075e-01
  4.564548e-01
  6.297501e-01
  6.021788e-01
  3.941350e-01
  2.459445e-01
  2.002361e-01
  2.104010e-01
  2.866237e-01
  4.714859e-01
  6.280166e-01
  6.158655e-01
  4.663250e-01
  3.341851e-01
  3.058577e-01
  3.613403e-01
  4.806619e-01
  5.750245e-01
  5.372579e-01
  3.809745e-01
  2.516599e-01
  2.111488e-01
  2.400570e-01
  3.464580e-01
  5.153848e-01
  6.199013e-01
  5.878310e-01
  4.642549e-01
  3.733017e-01
  3.535545e-01
  3.651931e-01
  3.625073e-01
  3.330341e-01
  3.022014e-01
  2.939356e-01
  3.120416e-01
  3.435941e-01
  3.612181e-01
  3.476976e-01
  3.298245e-01
  3.564585e-01
  4.521392e-01
  5.558540e-01
  5.451948e-01
  4.066677e-01
  2.864429e-01
  2.564429e-01
  3.060109e-01
  3.817424e-01
  3.848176e-01
  2.792879e-01
  2.443673e-01
  2.436205e-01
  3.108806e-01
  4.700276e-01
  6.170834e-01
  6.378006e-01
  5.670218e-01
  4.940771e-01
  4.635635e-01
  4.320081e-01
  3.501446e-01
  2.618021e-01
  2.224746e-01
  2.519518e-01
  3.782355e-01
  5.460061e-01
  5.680503e-01
  4.368274e-01
  3.223750e-01
  2.836825e-01
  2.823973e-01
  3.085289e-01
  3.816846e-01
  4.498755e-01
  4.316582e-01
  3.508825e-01
  2.921890e-01
  2.855546e-01
  3.386446e-01
  4.740064e-01
  6.251474e-01
  6.442923e-01
  4.894067e-01
  2.903816e-01
  2.000945e-01
  1.902032e-01
  2.373787e-01
  3.417969e-01
  4.483255e-01
  4.644230e-01
  4.016108e-01
  3.510590e-01
  3.478557e-01
  3.706517e-01
  3.868228e-01
  3.826437e-01
  3.694275e-01
  3.581787e-01
  3.473035e-01
  3.299613e-01
  3.004765e-01
  2.626879e-01
  2.354922e-01
  2.433764e-01
  3.106721e-01
  4.286764e-01
  4.881758e-01
  4.123532e-01
  3.019466e-01
  2.511431e-01
  2.590034e-01
  2.948963e-01
  3.086519e-01
  3.418019e-01
  3.035213e-01
  2.689396e-01
  2.838912e-01
  3.751453e-01
  5.034292e-01
  5.693732e-01
  5.607990e-01
  5.287047e-01
  4.980788e-01
  4.411147e-01
  3.491137e-01
  2.720988e-01
  2.412816e-01
  2.606321e-01
  3.394627e-01
  4.521192e-01
  4.965236e-01
  4.630526e-01
  4.444325e-01
  4.578429e-01
  4.400687e-01
  3.763172e-01
  3.283254e-01
  3.117332e-01
  2.968278e-01
  2.822729e-01
  2.768127e-01
  2.721528e-01
  2.878778e-01
  3.792108e-01
  5.533530e-01
  6.590697e-01
  5.846093e-01
  3.769451e-01
  2.363412e-01
  1.948122e-01
  2.124711e-01
  2.734883e-01
  3.492806e-01
  3.798318e-01
  3.580463e-01
  3.354834e-01
  3.394272e-01
  3.643723e-01
  3.963099e-01
  4.264945e-01
  4.472288e-01
  4.411501e-01
  3.980667e-01
  3.354386e-01
  2.798015e-01
  2.402503e-01
  2.181386e-01
  2.205278e-01
  2.666834e-01
  3.710459e-01
  4.652452e-01
  4.408810e-01
  3.424596e-01
  2.770125e-01
  2.691855e-01
  3.015458e-01
  3.401049e-01
  4.804360e-01
  4.442681e-01
  3.551154e-01
  2.934982e-01
  2.944846e-01
  3.383570e-01
  3.811854e-01
  4.047801e-01
  4.217821e-01
  4.330388e-01
  4.154787e-01
  3.680610e-01
  3.292649e-01
  3.237983e-01
  3.437756e-01
  3.721399e-01
  3.957011e-01
  4.061335e-01
  4.321802e-01
  5.215468e-01
  6.197565e-01
  6.035979e-01
  4.501087e-01
  3.032456e-01
  2.454521e-01
  2.438267e-01
  2.825081e-01
  3.294571e-01
  3.180927e-01
  2.736100e-01
  2.911961e-01
  4.256503e-01
  6.059339e-01
  6.480867e-01
  5.197895e-01
  3.518275e-01
  2.726538e-01
  2.726024e-01
  3.188617e-01
  3.736389e-01
  3.927163e-01
  3.745286e-01
  3.534629e-01
  3.483166e-01
  3.601716e-01
  3.913439e-01
  4.459031e-01
  5.053253e-01
  5.204084e-01
  4.649869e-01
  3.751119e-01
  3.092516e-01
  2.792260e-01
  2.694812e-01
  2.739197e-01
  3.111216e-01
  4.048590e-01
  5.078103e-01
  5.112190e-01
  4.170828e-01
  3.285368e-01
  3.045828e-01
  3.450361e-01
  4.274195e-01
  5.960610e-01
  6.030747e-01
  4.960393e-01
  3.592030e-01
  2.848977e-01
  2.679080e-01
  2.766756e-01
  2.946747e-01
  3.177840e-01
  3.415535e-01
  3.576164e-01
  3.697274e-01
  4.027540e-01
  4.637914e-01
  5.013104e-01
  4.642766e-01
  3.776152e-01
  3.219042e-01
  3.446516e-01
  4.799215e-01
  6.456481e-01
  6.523753e-01
  4.653025e-01
  2.781672e-01
  2.148117e-01
  2.390911e-01
  3.564288e-01
  4.961470e-01
  4.808033e-01
  3.381934e-01
  2.594063e-01
  3.171519e-01
  4.932675e-01
  6.327278e-01
  6.246411e-01
  5.218447e-01
  4.402857e-01
  4.268723e-01
  4.510122e-01
  4.655459e-01
  4.476814e-01
  4.133109e-01
  3.862391e-01
  3.707063e-01
  3.653708e-01
  3.830107e-01
  4.420664e-01
  5.277644e-01
  5.735236e-01
  5.389864e-01
  4.590727e-01
  4.067072e-01
  4.015945e-01
  4.107782e-01
  4.086255e-01
  4.166148e-01
  4.724816e-01
  5.513632e-01
  5.664251e-01
  4.870798e-01
  3.812103e-01
  3.331798e-01
  3.679405e-01
  4.821037e-01
  5.925014e-01
  6.564872e-01
  5.917238e-01
  4.426084e-01
  3.295644e-01
  2.892487e-01
  2.938742e-01
  3.110118e-01
  3.152674e-01
  3.066977e-01
  3.075316e-01
  3.391841e-01
  4.245252e-01
  5.506825e-01
  6.110425e-01
  5.315273e-01
  3.659435e-01
  2.651217e-01
  2.643066e-01
  3.828817e-01
  5.806102e-01
  6.200483e-01
  4.391325e-01
  2.566622e-01
  2.023852e-01
  2.582518e-01
  4.736063e-01
  6.920147e-01
  6.851183e-01
  4.652211e-01
  2.708029e-01
  2.476905e-01
  3.459210e-01
  4.933348e-01
  5.715344e-01
  5.683162e-01
  5.493621e-01
  5.457407e-01
  5.337438e-01
  4.928208e-01
  4.390971e-01
  4.017901e-01
  3.876204e-01
  3.799848e-01
  3.676485e-01
  3.684578e-01
  4.129952e-01
  5.019803e-01
  5.746262e-01
  5.795702e-01
  5.412549e-01
  5.242674e-01
  5.462855e-01
  5.599167e-01
  5.264747e-01
  4.747889e-01
  4.667628e-01
  5.091214e-01
  5.386568e-01
  4.956270e-01
  3.998916e-01
  3.325565e-01
  3.409071e-01
  4.435591e-01
  5.003290e-01
  5.969425e-01
  5.756770e-01
  4.659251e-01
  3.763753e-01
  3.649365e-01
  4.180496e-01
  4.673473e-01
  4.428828e-01
  3.566081e-01
  2.921354e-01
  2.940621e-01
  3.716312e-01
  5.113142e-01
  5.914858e-01
  5.137452e-01
  3.418768e-01
  2.391003e-01
  2.289566e-01
  3.226006e-01
  5.149418e-01
  5.814871e-01
  4.255242e-01
  2.548745e-01
  2.035540e-01
  2.745630e-01
  5.390811e-01
  7.705183e-01
  7.718321e-01
  5.478200e-01
  2.859991e-01
  2.115624e-01
  2.385926e-01
  3.123112e-01
  3.869685e-01
  4.407372e-01
  4.824722e-01
  5.014759e-01
  4.712381e-01
  4.052489e-01
  3.518571e-01
  3.371458e-01
  3.529675e-01
  3.686942e-01
  3.593846e-01
  3.431233e-01
  3.596727e-01
  4.253623e-01
  5.055547e-01
  5.445826e-01
  5.422289e-01
  5.421289e-01
  5.574576e-01
  5.483961e-01
  4.848622e-01
  4.034544e-01
  3.678025e-01
  3.944182e-01
  4.464553e-01
  4.535644e-01
  3.919138e-01
  3.218167e-01
  3.033061e-01
  3.656906e-01
  4.209393e-01
  4.886833e-01
  4.709867e-01
  4.001338e-01
  3.624038e-01
  4.114456e-01
  5.482227e-01
  6.552584e-01
  6.298127e-01
  4.700003e-01
  3.135398e-01
  2.648663e-01
  3.025194e-01
  4.052238e-01
  4.892116e-01
  4.490720e-01
  3.262407e-01
  2.457793e-01
  2.383863e-01
  3.214031e-01
  4.964309e-01
  5.721150e-01
  4.423376e-01
  2.775549e-01
  2.185986e-01
  2.789613e-01
  5.223171e-01
  7.471437e-01
  7.503425e-01
  5.328038e-01
  2.820941e-01
  2.009502e-01
  2.000891e-01
  2.282601e-01
  2.688690e-01
  3.206717e-01
  3.799623e-01
  4.110739e-01
  3.805134e-01
  3.200175e-01
  2.843732e-01
  2.922938e-01
  3.346132e-01
  3.731355e-01
  3.645203e-01
  3.262791e-01
  3.103022e-01
  3.398338e-01
  4.010080e-01
  4.512764e-01
  4.647993e-01
  4.572846e-01
  4.435261e-01
  4.107568e-01
  3.533525e-01
  3.003314e-01
  2.839135e-01
  3.155885e-01
  3.819828e-01
  4.256616e-01
  3.982805e-01
  3.369317e-01
  3.058945e-01
  3.356393e-01
  4.250560e-01
  4.285985e-01
  3.736095e-01
  3.104999e-01
  2.924273e-01
  3.560930e-01
  5.261737e-01
  6.848736e-01
  6.959909e-01
  5.410326e-01
  3.411018e-01
  2.587942e-01
  2.660310e-01
  3.300183e-01
  4.056621e-01
  4.148966e-01
  3.545716e-01
  2.985025e-01
  2.909752e-01
  3.578508e-01
  4.929595e-01
  5.538856e-01
  4.546191e-01
  3.136083e-01
  2.518125e-01
  2.862862e-01
  4.525800e-01
  6.334371e-01
  6.292024e-01
  4.417830e-01
  2.707063e-01
  2.192119e-01
  2.237851e-01
  2.466365e-01
  2.800284e-01
  3.316422e-01
  3.962802e-01
  4.280822e-01
  3.903830e-01
  3.230301e-01
  2.886333e-01
  3.085417e-01
  3.749190e-01
  4.345024e-01
  4.192078e-01
  3.489516e-01
  2.986294e-01
  2.977320e-01
  3.348319e-01
  3.769572e-01
  3.900861e-01
  3.722514e-01
  3.421209e-01
  3.097051e-01
  2.792561e-01
  2.610778e-01
  2.676265e-01
  3.089208e-01
  3.812348e-01
  4.398472e-01
  4.355276e-01
  3.913247e-01
  3.660967e-01
  3.847948e-01
  4.849733e-01
  4.316296e-01
  3.356376e-01
  2.611577e-01
  2.332364e-01
  2.639131e-01
  3.843358e-01
  5.584438e-01
  6.240118e-01
  5.208587e-01
  3.517359e-01
  2.694405e-01
  2.641203e-01
  3.082181e-01
  3.814973e-01
  4.378322e-01
  4.418216e-01
  4.110580e-01
  3.843961e-01
  3.976476e-01
  4.528383e-01
  4.773949e-01
  4.221476e-01
  3.463887e-01
  3.116706e-01
  3.243523e-01
  3.920412e-01
  4.667594e-01
  4.462886e-01
  3.463471e-01
  2.820348e-01
  2.898327e-01
  3.372346e-01
  3.863906e-01
  4.265341e-01
  4.734103e-01
  5.267308e-01
  5.445101e-01
  4.929323e-01
  4.059787e-01
  3.565707e-01
  3.778207e-01
  4.603272e-01
  5.330292e-01
  5.142842e-01
  4.193825e-01
  3.384298e-01
  3.138613e-01
  3.311843e-01
  3.576561e-01
  3.617341e-01
  3.398631e-01
  3.128227e-01
  2.962439e-01
  2.905073e-01
  2.929971e-01
  3.090485e-01
  3.490875e-01
  4.105367e-01
  4.608478e-01
  4.681646e-01
  4.506733e-01
  4.504313e-01
  4.756346e-01
  5.018715e-01
  4.348252e-01
  3.340249e-01
  2.582886e-01
  2.196520e-01
  2.185860e-01
  2.726293e-01
  3.891997e-01
  4.841731e-01
  4.598823e-01
  3.623136e-01
  2.988565e-01
  2.877058e-01
  3.190618e-01
  3.896635e-01
  4.793022e-01
  5.388146e-01
  5.347315e-01
  4.748888e-01
  4.077885e-01
  3.751393e-01
  3.641052e-01
  3.583542e-01
  3.730569e-01
  4.049756e-01
  4.116932e-01
  3.878873e-01
  3.588271e-01
  3.242491e-01
  2.989754e-01
  3.225854e-01
  4.129374e-01
  5.274257e-01
  5.904867e-01
  5.960017e-01
  5.866331e-01
  5.905040e-01
  5.875949e-01
  5.445725e-01
  4.694226e-01
  4.155438e-01
  4.218879e-01
  4.865154e-01
  5.520230e-01
  5.495943e-01
  4.806389e-01
  4.100500e-01
  3.787974e-01
  3.755777e-01
  3.741390e-01
  3.592330e-01
  3.388647e-01
  3.355072e-01
  3.594574e-01
  3.882518e-01
  3.949507e-01
  3.851173e-01
  3.871110e-01
  4.080838e-01
  4.308760e-01
  4.404489e-01
  4.462859e-01
  4.685512e-01
  5.016364e-01
  4.225959e-01
  3.925748e-01
  3.462724e-01
  3.082591e-01
  2.734135e-01
  2.478478e-01
  2.562709e-01
  3.188756e-01
  4.065046e-01
  4.396750e-01
  4.026263e-01
  3.539691e-01
  3.308664e-01
  3.419238e-01
  3.930727e-01
  4.807000e-01
  5.605197e-01
  5.718139e-01
  4.945931e-01
  3.804485e-01
  3.051220e-01
  2.815703e-01
  3.087014e-01
  3.995052e-01
  5.087894e-01
  5.171169e-01
  4.155130e-01
  3.143603e-01
  2.688019e-01
  2.753730e-01
  3.415400e-01
  4.684143e-01
  5.835985e-01
  6.087184e-01
  5.580343e-01
  4.927471e-01
  4.608642e-01
  4.572288e-01
  4.497006e-01
  4.221058e-01
  3.887331e-01
  3.740493e-01
  3.927787e-01
  4.308595e-01
  4.541853e-01
  4.530230e-01
  4.480723e-01
  4.455347e-01
  4.273359e-01
  3.883933e-01
  3.495014e-01
  3.386883e-01
  3.833613e-01
  4.810476e-01
  5.493875e-01
  5.271190e-01
  4.400282e-01
  3.715997e-01
  3.469288e-01
  3.493510e-01
  3.619412e-01
  3.756756e-01
  3.936880e-01
  4.167157e-01
  3.101252e-01
  3.295647e-01
  3.779586e-01
  4.422620e-01
  4.473955e-01
  3.892515e-01
  3.323735e-01
  3.391760e-01
  4.035261e-01
  4.609529e-01
  4.609589e-01
  4.204821e-01
  3.798841e-01
  3.629878e-01
  3.801033e-01
  4.339597e-01
  4.979718e-01
  5.131238e-01
  4.461570e-01
  3.411583e-01
  2.689968e-01
  2.483286e-01
  2.907153e-01
  4.219338e-01
  5.705999e-01
  5.705943e-01
  4.221489e-01
  2.898310e-01
  2.431244e-01
  2.580103e-01
  3.177869e-01
  4.005190e-01
  4.490869e-01
  4.228242e-01
  3.534414e-01
  2.979506e-01
  2.799254e-01
  2.927245e-01
  3.196245e-01
  3.414585e-01
  3.403633e-01
  3.141936e-01
  2.895119e-01
  2.887510e-01
  3.126389e-01
  3.567615e-01
  4.151609e-01
  4.569188e-01
  4.400041e-01
  3.752020e-01
  3.215154e-01
  3.248674e-01
  4.198865e-01
  5.816693e-01
  6.573739e-01
  5.864313e-01
  4.205493e-01
  3.078735e-01
  2.720095e-01
  2.818789e-01
  3.091462e-01
  3.199208e-01
  3.095123e-01
  3.036456e-01
  2.345794e-01
  2.795996e-01
  4.148799e-01
  6.083229e-01
  6.764217e-01
  6.059203e-01
  4.614466e-01
  3.852888e-01
  4.074071e-01
  4.632432e-01
  4.835822e-01
  4.546842e-01
  4.083697e-01
  3.753058e-01
  3.670513e-01
  3.846346e-01
  4.157145e-01
  4.260869e-01
  3.876560e-01
  3.207772e-01
  2.693998e-01
  2.565417e-01
  3.047757e-01
  4.382419e-01
  5.701735e-01
  5.462701e-01
  3.908985e-01
  2.756630e-01
  2.509737e-01
  2.826093e-01
  3.249593e-01
  3.357888e-01
  3.082703e-01
  2.643900e-01
  2.264910e-01
  2.067455e-01
  2.064111e-01
  2.254384e-01
  2.667231e-01
  3.272392e-01
  3.714159e-01
  3.482988e-01
  2.843202e-01
  2.400224e-01
  2.395063e-01
  2.811575e-01
  3.566638e-01
  4.266226e-01
  4.249376e-01