# vtk DataFile Version 2.0
time_10.vtk
ASCII
DATASET STRUCTURED_GRID
DIMENSIONS    64    64     1
POINTS    4096 float
  0.000000e+00   0.000000e+00   0.000000e+00
  0.000000e+00   1.000000e+00   0.000000e+00
  0.000000e+00   2.000000e+00   0.000000e+00
  0.000000e+00   3.000000e+00   0.000000e+00
  0.000000e+00   4.000000e+00   0.000000e+00
  0.000000e+00   5.000000e+00   0.000000e+00
  0.000000e+00   6.000000e+00   0.000000e+00
  0.000000e+00   7.000000e+00   0.000000e+00
  0.000000e+00   8.000000e+00   0.000000e+00
  0.000000e+00   9.000000e+00   0.000000e+00
  0.000000e+00   1.000000e+01   0.000000e+00
  0.000000e+00   1.100000e+01   0.000000e+00
  0.000000e+00   1.200000e+01   0.000000e+00
  0.000000e+00   1.300000e+01   0.000000e+00
  0.000000e+00   1.400000e+01   0.000000e+00
  0.000000e+00   1.500000e+01   0.000000e+00
  0.000000e+00   1.600000e+01   0.000000e+00
  0.000000e+00   1.700000e+01   0.000000e+00
  0.000000e+00   1.800000e+01   0.000000e+00
  0.000000e+00   1.900000e+01   0.000000e+00
  0.000000e+00   2.000000e+01   0.000000e+00
  0.000000e+00   2.100000e+01   0.000000e+00
  0.000000e+00   2.200000e+01   0.000000e+00
  0.000000e+00   2.300000e+01   0.000000e+00
  0.000000e+00   2.400000e+01   0.000000e+00
  0.000000e+00   2.500000e+01   0.000000e+00
  0.000000e+00   2.600000e+01   0.000000e+00
  0.000000e+00   2.700000e+01   0.000000e+00
  0.000000e+00   2.800000e+01   0.000000e+00
  0.000000e+00   2.900000e+01   0.000000e+00
  0.000000e+00   3.000000e+01   0.000000e+00
  0.000000e+00   3.100000e+01   0.000000e+00
  0.000000e+00   3.200000e+01   0.000000e+00
  0.000000e+00   3.300000e+01   0.000000e+00
  0.000000e+00   3.400000e+01   0.000000e+00
  0.000000e+00   3.500000e+01   0.000000e+00
  0.000000e+00   3.600000e+01   0.000000e+00
  0.000000e+00   3.700000e+01   0.000000e+00
  0.000000e+00   3.800000e+01   0.000000e+00
  0.000000e+00   3.900000e+01   0.000000e+00
  0.000000e+00   4.000000e+01   0.000000e+00
  0.000000e+00   4.100000e+01   0.000000e+00
  0.000000e+00   4.200000e+01   0.000000e+00
  0.000000e+00   4.300000e+01   0.000000e+00
  0.000000e+00   4.400000e+01   0.000000e+00
  0.000000e+00   4.500000e+01   0.000000e+00
  0.000000e+00   4.600000e+01   0.000000e+00
  0.000000e+00   4.700000e+01   0.000000e+00
  0.000000e+00   4.800000e+01   0.000000e+00
  0.000000e+00   4.900000e+01   0.000000e+00
  0.000000e+00   5.000000e+01   0.000000e+00
  0.000000e+00   5.100000e+01   0.000000e+00
  0.000000e+00   5.200000e+01   0.000000e+00
  0.000000e+00   5.300000e+01   0.000000e+00
  0.000000e+00   5.400000e+01   0.000000e+00
  0.000000e+00   5.500000e+01   0.000000e+00
  0.000000e+00   5.600000e+01   0.000000e+00
  0.000000e+00   5.700000e+01   0.000000e+00
  0.000000e+00   5.800000e+01   0.000000e+00
  0.000000e+00   5.900000e+01   0.000000e+00
  0.000000e+00   6.000000e+01   0.000000e+00
  0.000000e+00   6.100000e+01   0.000000e+00
  0.000000e+00   6.200000e+01   0.000000e+00
  0.000000e+00   6.300000e+01   0.000000e+00
  1.000000e+00   0.000000e+00   0.000000e+00
  1.000000e+00   1.000000e+00   0.000000e+00
  1.000000e+00   2.000000e+00   0.000000e+00
  1.000000e+00   3.000000e+00   0.000000e+00
  1.000000e+00   4.000000e+00   0.000000e+00
  1.000000e+00   5.000000e+00   0.000000e+00
  1.000000e+00   6.000000e+00   0.000000e+00
  1.000000e+00   7.000000e+00   0.000000e+00
  1.000000e+00   8.000000e+00   0.000000e+00
  1.000000e+00   9.000000e+00   0.000000e+00
  1.000000e+00   1.000000e+01   0.000000e+00
  1.000000e+00   1.100000e+01   0.000000e+00
  1.000000e+00   1.200000e+01   0.000000e+00
  1.000000e+00   1.300000e+01   0.000000e+00
  1.000000e+00   1.400000e+01   0.000000e+00
  1.000000e+00   1.500000e+01   0.000000e+00
  1.000000e+00   1.600000e+01   0.000000e+00
  1.000000e+00   1.700000e+01   0.000000e+00
  1.000000e+00   1.800000e+01   0.000000e+00
  1.000000e+00   1.900000e+01   0.000000e+00
  1.000000e+00   2.000000e+01   0.000000e+00
  1.000000e+00   2.100000e+01   0.000000e+00
  1.000000e+00   2.200000e+01   0.000000e+00
  1.000000e+00   2.300000e+01   0.000000e+00
  1.000000e+00   2.400000e+01   0.000000e+00
  1.000000e+00   2.500000e+01   0.000000e+00
  1.000000e+00   2.600000e+01   0.000000e+00
  1.000000e+00   2.700000e+01   0.000000e+00
  1.000000e+00   2.800000e+01   0.000000e+00
  1.000000e+00   2.900000e+01   0.000000e+00
  1.000000e+00   3.000000e+01   0.000000e+00
  1.000000e+00   3.100000e+01   0.000000e+00
  1.000000e+00   3.200000e+01   0.000000e+00
  1.000000e+00   3.300000e+01   0.000000e+00
  1.000000e+00   3.400000e+01   0.000000e+00
  1.000000e+00   3.500000e+01   0.000000e+00
  1.000000e+00   3.600000e+01   0.000000e+00
  1.000000e+00   3.700000e+01   0.000000e+00
  1.000000e+00   3.800000e+01   0.000000e+00
  1.000000e+00   3.900000e+01   0.000000e+00
  1.000000e+00   4.000000e+01   0.000000e+00
  1.000000e+00   4.100000e+01   0.000000e+00
  1.000000e+00   4.200000e+01   0.000000e+00
  1.000000e+00   4.300000e+01   0.000000e+00
  1.000000e+00   4.400000e+01   0.000000e+00
  1.000000e+00   4.500000e+01   0.000000e+00
  1.000000e+00   4.600000e+01   0.000000e+00
  1.000000e+00   4.700000e+01   0.000000e+00
  1.000000e+00   4.800000e+01   0.000000e+00
  1.000000e+00   4.900000e+01   0.000000e+00
  1.000000e+00   5.000000e+01   0.000000e+00
  1.000000e+00   5.100000e+01   0.000000e+00
  1.000000e+00   5.200000e+01   0.000000e+00
  1.000000e+00   5.300000e+01   0.000000e+00
  1.000000e+00   5.400000e+01   0.000000e+00
  1.000000e+00   5.500000e+01   0.000000e+00
  1.000000e+00   5.600000e+01   0.000000e+00
  1.000000e+00   5.700000e+01   0.000000e+00
  1.000000e+00   5.800000e+01   0.000000e+00
  1.000000e+00   5.900000e+01   0.000000e+00
  1.000000e+00   6.000000e+01   0.000000e+00
  1.000000e+00   6.100000e+01   0.000000e+00
  1.000000e+00   6.200000e+01   0.000000e+00
  1.000000e+00   6.300000e+01   0.000000e+00
  2.000000e+00   0.000000e+00   0.000000e+00
  2.000000e+00   1.000000e+00   0.000000e+00
  2.000000e+00   2.000000e+00   0.000000e+00
  2.000000e+00   3.000000e+00   0.000000e+00
  2.000000e+00   4.000000e+00   0.000000e+00
  2.000000e+00   5.000000e+00   0.000000e+00
  2.000000e+00   6.000000e+00   0.000000e+00
  2.000000e+00   7.000000e+00   0.000000e+00
  2.000000e+00   8.000000e+00   0.000000e+00
  2.000000e+00   9.000000e+00   0.000000e+00
  2.000000e+00   1.000000e+01   0.000000e+00
  2.000000e+00   1.100000e+01   0.000000e+00
  2.000000e+00   1.200000e+01   0.000000e+00
  2.000000e+00   1.300000e+01   0.000000e+00
  2.000000e+00   1.400000e+01   0.000000e+00
  2.000000e+00   1.500000e+01   0.000000e+00
  2.000000e+00   1.600000e+01   0.000000e+00
  2.000000e+00   1.700000e+01   0.000000e+00
  2.000000e+00   1.800000e+01   0.000000e+00
  2.000000e+00   1.900000e+01   0.000000e+00
  2.000000e+00   2.000000e+01   0.000000e+00
  2.000000e+00   2.100000e+01   0.000000e+00
  2.000000e+00   2.200000e+01   0.000000e+00
  2.000000e+00   2.300000e+01   0.000000e+00
  2.000000e+00   2.400000e+01   0.000000e+00
  2.000000e+00   2.500000e+01   0.000000e+00
  2.000000e+00   2.600000e+01   0.000000e+00
  2.000000e+00   2.700000e+01   0.000000e+00
  2.000000e+00   2.800000e+01   0.000000e+00
  2.000000e+00   2.900000e+01   0.000000e+00
  2.000000e+00   3.000000e+01   0.000000e+00
  2.000000e+00   3.100000e+01   0.000000e+00
  2.000000e+00   3.200000e+01   0.000000e+00
  2.000000e+00   3.300000e+01   0.000000e+00
  2.000000e+00   3.400000e+01   0.000000e+00
  2.000000e+00   3.500000e+01   0.000000e+00
  2.000000e+00   3.600000e+01   0.000000e+00
  2.000000e+00   3.700000e+01   0.000000e+00
  2.000000e+00   3.800000e+01   0.000000e+00
  2.000000e+00   3.900000e+01   0.000000e+00
  2.000000e+00   4.000000e+01   0.000000e+00
  2.000000e+00   4.100000e+01   0.000000e+00
  2.000000e+00   4.200000e+01   0.000000e+00
  2.000000e+00   4.300000e+01   0.000000e+00
  2.000000e+00   4.400000e+01   0.000000e+00
  2.000000e+00   4.500000e+01   0.000000e+00
  2.000000e+00   4.600000e+01   0.000000e+00
  2.000000e+00   4.700000e+01   0.000000e+00
  2.000000e+00   4.800000e+01   0.000000e+00
  2.000000e+00   4.900000e+01   0.000000e+00
  2.000000e+00   5.000000e+01   0.000000e+00
  2.000000e+00   5.100000e+01   0.000000e+00
  2.000000e+00   5.200000e+01   0.000000e+00
  2.000000e+00   5.300000e+01   0.000000e+00
  2.000000e+00   5.400000e+01   0.000000e+00
  2.000000e+00   5.500000e+01   0.000000e+00
  2.000000e+00   5.600000e+01   0.000000e+00
  2.000000e+00   5.700000e+01   0.000000e+00
  2.000000e+00   5.800000e+01   0.000000e+00
  2.000000e+00   5.900000e+01   0.000000e+00
  2.000000e+00   6.000000e+01   0.000000e+00
  2.000000e+00   6.100000e+01   0.000000e+00
  2.000000e+00   6.200000e+01   0.000000e+00
  2.000000e+00   6.300000e+01   0.000000e+00
  3.000000e+00   0.000000e+00   0.000000e+00
  3.000000e+00   1.000000e+00   0.000000e+00
  3.000000e+00   2.000000e+00   0.000000e+00
  3.000000e+00   3.000000e+00   0.000000e+00
  3.000000e+00   4.000000e+00   0.000000e+00
  3.000000e+00   5.000000e+00   0.000000e+00
  3.000000e+00   6.000000e+00   0.000000e+00
  3.000000e+00   7.000000e+00   0.000000e+00
  3.000000e+00   8.000000e+00   0.000000e+00
  3.000000e+00   9.000000e+00   0.000000e+00
  3.000000e+00   1.000000e+01   0.000000e+00
  3.000000e+00   1.100000e+01   0.000000e+00
  3.000000e+00   1.200000e+01   0.000000e+00
  3.000000e+00   1.300000e+01   0.000000e+00
  3.000000e+00   1.400000e+01   0.000000e+00
  3.000000e+00   1.500000e+01   0.000000e+00
  3.000000e+00   1.600000e+01   0.000000e+00
  3.000000e+00   1.700000e+01   0.000000e+00
  3.000000e+00   1.800000e+01   0.000000e+00
  3.000000e+00   1.900000e+01   0.000000e+00
  3.000000e+00   2.000000e+01   0.000000e+00
  3.000000e+00   2.100000e+01   0.000000e+00
  3.000000e+00   2.200000e+01   0.000000e+00
  3.000000e+00   2.300000e+01   0.000000e+00
  3.000000e+00   2.400000e+01   0.000000e+00
  3.000000e+00   2.500000e+01   0.000000e+00
  3.000000e+00   2.600000e+01   0.000000e+00
[...]
POINT_DATA  4096
SCALARS CON float 1
LOOKUP_TABLE default
  1.881858e-01
  6.750490e-01
  9.364178e-01
  9.937787e-01
  9.999000e-01
  9.999000e-01
  9.647745e-01
  7.782962e-01
  2.466596e-01
  6.658614e-02
  3.133747e-02
  2.613128e-02
  2.630803e-02
  2.729852e-02
  2.838849e-02
  2.944020e-02
  3.026338e-02
  3.056361e-02
  3.001286e-02
  2.834486e-02
  2.550565e-02
  2.195749e-02
  1.883426e-02
  1.718475e-02
  2.015359e-02
  4.289173e-02
  1.449081e-01
  4.587589e-01
  8.125161e-01
  9.476097e-01
  9.847939e-01
  9.938748e-01
  9.951090e-01
  9.925662e-01
  9.832807e-01
  9.555654e-01
  8.789489e-01
  6.856318e-01
  3.412527e-01
  1.154824e-01
  4.301669e-02
  2.742723e-02
  2.689788e-02
  2.982228e-02
  3.242736e-02
  3.339096e-02
  3.250060e-02
  3.025318e-02
  2.763224e-02
  2.627254e-02
  2.913186e-02
  4.363781e-02
  8.855999e-02
  1.713562e-01
  2.401610e-01
  2.554921e-01
  2.132539e-01
  1.342060e-01
  6.574258e-02
  3.219320e-02
  2.083768e-02
  1.875887e-02
  2.348424e-02
  5.073870e-02
  1.278700e-01
  4.766544e-01
  8.466953e-01
  9.607335e-01
  9.853299e-01
  9.812308e-01
  9.258461e-01
  6.894027e-01
  2.136635e-01
  7.096438e-02
  5.168235e-02
  5.889313e-02
  6.845017e-02
  7.603958e-02
  8.190653e-02
  8.650459e-02
  8.938154e-02
  8.921968e-02
  8.445131e-02
  7.402219e-02
  5.814637e-02
  3.997891e-02
  2.668301e-02
  1.999493e-02
  1.775855e-02
  2.303634e-02
  5.561284e-02
  1.844882e-01
  5.204727e-01
  8.321033e-01
  9.503471e-01
  9.849685e-01
  9.944717e-01
  9.967286e-01
  9.959341e-01
  9.907238e-01
  9.724925e-01
  9.097109e-01
  7.045891e-01
  2.929656e-01
  8.461324e-02
  3.495191e-02
  2.558170e-02
  2.442840e-02
  2.457817e-02
  2.463090e-02
  2.440869e-02
  2.409515e-02
  2.421970e-02
  2.655385e-02
  3.841676e-02
  9.019735e-02
  2.742866e-01
  5.837972e-01
  7.574403e-01
  7.876329e-01
  7.097940e-01
  4.807588e-01
  2.121581e-01
  7.257405e-02
  2.888385e-02
  1.880763e-02
  2.045177e-02
  3.859416e-02
  6.562254e-02
  2.213114e-01
  5.702908e-01
  8.012032e-01
  8.741187e-01
  8.641962e-01
  7.482884e-01
  4.284673e-01
  1.507981e-01
  1.033934e-01
  1.535760e-01
  2.238060e-01
  2.771631e-01
  3.131393e-01
  3.384481e-01
  3.567222e-01
  3.666995e-01
  3.632694e-01
  3.399643e-01
  2.912470e-01
  2.143282e-01
  1.201812e-01
  5.472395e-02
  2.880405e-02
  1.986217e-02
  1.774914e-02
  2.515149e-02
  6.416973e-02
  2.045183e-01
  5.379636e-01
  8.321490e-01
  9.482352e-01
  9.845109e-01
  9.955206e-01
  9.989548e-01
  9.993991e-01
  9.959018e-01
  9.769554e-01
  8.845603e-01
  5.442136e-01
  1.500826e-01
  4.791611e-02
  2.805705e-02
  2.448776e-02
  2.385526e-02
  2.366812e-02
  2.353121e-02
  2.355087e-02
  2.443059e-02
  2.957003e-02
  5.596355e-02
  1.815819e-01
  5.987514e-01
  8.763608e-01
  9.552322e-01
  9.660487e-01
  9.398632e-01
  8.374423e-01
  5.524757e-01
  1.900953e-01
  5.374940e-02
  2.168702e-02
  1.744729e-02
  2.581939e-02
  3.104267e-02
  7.548580e-02
  1.825442e-01
  3.196425e-01
  4.173828e-01
  4.084144e-01
  2.977401e-01
  1.678881e-01
  1.279424e-01
  2.549468e-01
  5.282614e-01
  7.316075e-01
  8.107841e-01
  8.387063e-01
  8.507959e-01
  8.577957e-01
  8.617096e-01
  8.610175e-01
  8.505549e-01
  8.134655e-01
  6.944880e-01
  4.086862e-01
  1.446622e-01
  5.106863e-02
  2.578716e-02
  1.825883e-02
  1.704385e-02
  2.578649e-02
  6.655596e-02
  2.039991e-01
  5.215345e-01
  8.167299e-01
  9.411811e-01
  9.825209e-01
  9.958195e-01
  9.999000e-01
  9.999000e-01
  9.934651e-01
  9.389617e-01
  6.837791e-01
  1.968716e-01
  5.784656e-02
  3.057048e-02
  2.547746e-02
  2.444645e-02
  2.412266e-02
  2.392547e-02
  2.393440e-02
  2.511991e-02
  3.268699e-02
  7.370050e-02
  2.693254e-01
  7.823425e-01
  9.598134e-01
  9.954459e-01
  9.987162e-01
  9.911138e-01
  9.556005e-01
  8.162558e-01
  4.172434e-01
  1.109923e-01
  3.081833e-02
  1.590300e-02
  1.743156e-02
  1.729657e-02
  2.952552e-02
  5.416565e-02
  8.679914e-02
  1.122387e-01
  1.128369e-01
  9.289570e-02
  8.734035e-02
  1.799953e-01
  5.531089e-01
  8.493833e-01
  9.448200e-01
  9.696536e-01
  9.760633e-01
  9.781744e-01
  9.794353e-01
  9.804810e-01
  9.810287e-01
  9.797576e-01
  9.711543e-01
  9.282408e-01
  7.547931e-01
  3.177645e-01
  9.134685e-02
  3.503104e-02
  2.091614e-02
  1.626422e-02
  1.602884e-02
  2.505287e-02
  6.338431e-02
  1.869905e-01
  4.750308e-01
  7.819903e-01
  9.242819e-01
  9.747557e-01
  9.921835e-01
  9.966996e-01
  9.876671e-01
  9.240682e-01
  6.495583e-01
  1.870762e-01
  5.714752e-02
  3.129191e-02
  2.630118e-02
  2.521801e-02
  2.483628e-02
  2.455802e-02
  2.444533e-02
  2.562108e-02
  3.439171e-02
  8.386246e-02
  3.178625e-01
  8.379293e-01
  9.774005e-01
  9.999000e-01
  9.999000e-01
  9.991796e-01
  9.866724e-01
  9.258950e-01
  6.812921e-01
  2.178461e-01
  5.168798e-02
  1.701094e-02
  1.288384e-02
  1.136408e-02
  1.590599e-02
  2.314555e-02
  3.175811e-02
  3.878614e-02
  4.159190e-02
  4.470834e-02
  7.454706e-02
  2.396039e-01
  7.427181e-01
  9.475182e-01
  9.917890e-01
  9.983760e-01
  9.989400e-01
  9.988923e-01
  9.989942e-01
  9.992890e-01
  9.996798e-01
  9.999000e-01
  9.997630e-01
  9.837017e-01
  8.837951e-01
  4.820246e-01
  1.320027e-01
  4.370701e-02
  2.364643e-02
  1.746403e-02
  1.480683e-02
  1.520585e-02
  2.356955e-02
  5.631332e-02
  1.570514e-01
  3.947092e-01
  7.076418e-01
  8.744214e-01
  9.405272e-01
  9.566113e-01
  9.306905e-01
  8.024569e-01
  4.340627e-01
  1.266983e-01
  4.683010e-02
  3.019655e-02
  2.677669e-02
  2.598857e-02
  2.568981e-02
  2.540988e-02
  2.515603e-02
  2.599780e-02
  3.428969e-02
  8.350576e-02
  3.190686e-01
  8.403685e-01
  9.773674e-01
  9.994615e-01
  9.999000e-01
  9.999000e-01
  9.948217e-01
  9.663822e-01
  8.331758e-01
  3.962240e-01
  9.589511e-02
  2.332448e-02
  1.078138e-02
  8.227230e-03
  1.037124e-02
  1.407572e-02
  1.814518e-02
  2.182614e-02
  2.519697e-02
  3.284426e-02
  7.006572e-02
  2.527005e-01
  7.798104e-01
  9.635638e-01
  9.982437e-01
  9.999000e-01
  9.999000e-01
  9.999000e-01
  9.999000e-01
  9.999000e-01
  9.999000e-01
  9.999000e-01
  9.999000e-01
  9.875048e-01
  8.960502e-01
  5.056405e-01
  1.382717e-01
  4.546719e-02
  2.490016e-02
  1.880159e-02
  1.588001e-02
  1.440314e-02
  1.530123e-02
  2.255223e-02
  4.761976e-02
  1.178182e-01
  2.744819e-01
  5.192333e-01
  7.044015e-01
  7.553295e-01
  6.836557e-01
  4.482123e-01
  1.845036e-01
  6.735980e-02
  3.596904e-02
  2.870921e-02
  2.714350e-02
  2.691166e-02
  2.702422e-02
  2.710214e-02
  2.686778e-02
  2.704429e-02
  3.318605e-02
  7.432367e-02
  2.796893e-01
  8.052433e-01
  9.670473e-01
  9.967811e-01
  9.999000e-01
  9.999000e-01
  9.972491e-01
  9.831584e-01
  9.152931e-01
  6.365604e-01
  1.869314e-01
  4.169103e-02
  1.188422e-02
  7.882181e-03
  7.352849e-03
  9.835264e-03
  1.297960e-02
  1.614087e-02
  1.964056e-02
  2.710259e-02
  5.843374e-02
  2.084540e-01
  6.952967e-01
  9.336425e-01
  9.889153e-01
  9.980322e-01
  9.988499e-01
  9.984358e-01
  9.979951e-01
  9.976817e-01
  9.973241e-01
  9.960545e-01
  9.898329e-01
  9.580472e-01
  8.147213e-01
  3.729926e-01
  1.048233e-01
  3.940899e-02
  2.446298e-02
  1.987612e-02
  1.772715e-02
  1.683258e-02
  1.751420e-02
  2.052961e-02
  2.785929e-02
  4.554936e-02
  8.450693e-02
  1.510385e-01
  2.162404e-01
  2.382234e-01
  2.043799e-01
  1.309358e-01
  6.727044e-02
  3.879421e-02
  3.003831e-02
  2.790734e-02
  2.779165e-02
  2.864887e-02
  3.047751e-02
  3.268177e-02
  3.338891e-02
  3.211273e-02
  3.371402e-02
  6.092237e-02
  2.125797e-01
  7.025145e-01
  9.356215e-01
  9.886734e-01
  9.983419e-01
  9.994909e-01
  9.979488e-01
  9.906443e-01
  9.572015e-01
  8.072054e-01
  3.633683e-01
  9.098102e-02
  2.131744e-02
  1.589856e-02
  7.607390e-03
  7.773779e-03
  1.015194e-02
  1.309965e-02
  1.645225e-02
  2.218294e-02
  4.140696e-02
  1.267232e-01
  4.440147e-01
  8.013538e-01
  9.316096e-01
  9.663026e-01
  9.741773e-01
  9.751692e-01
  9.744323e-01
  9.729630e-01
  9.697545e-01
  9.602454e-01
  9.291829e-01
  8.306086e-01
  5.630937e-01
  1.965648e-01
  6.344186e-02
  3.135105e-02
  2.348690e-02
  2.112019e-02
  2.106155e-02
  2.438862e-02
  3.331366e-02
  4.700099e-02
  6.057606e-02
  7.308371e-02
  8.612678e-02
  9.883882e-02
  1.028615e-01
  9.096644e-02
  6.977663e-02
  4.935975e-02
  3.564002e-02
  2.960055e-02
  2.784944e-02
  2.793662e-02
  2.942174e-02
  3.371528e-02
  4.368027e-02
  5.771164e-02
  6.439790e-02
  5.741443e-02
  4.493431e-02
  5.048501e-02
  1.337224e-01
  4.764332e-01
  8.457662e-01
  9.629592e-01
  9.910954e-01
  9.972174e-01
  9.975202e-01
  9.939581e-01
  9.783712e-01
  9.090105e-01
  6.434956e-01
  2.226609e-01
  5.747782e-02
  5.577325e-02
  2.010603e-02
  1.121065e-02
  1.030321e-02
  1.198032e-02
  1.463826e-02
  1.852413e-02
  2.766975e-02
  6.020762e-02
  1.762844e-01
  4.349573e-01
  6.885921e-01
  7.949596e-01
  8.274057e-01
  8.349684e-01
  8.339921e-01
  8.281687e-01
  8.138699e-01
  7.751651e-01
  6.684718e-01
  4.411419e-01
  2.080282e-01
  7.858183e-02
  3.684145e-02
  2.588629e-02
  2.316818e-02
  2.370056e-02
  2.994472e-02
  5.230031e-02
  1.058267e-01
  1.832341e-01
  2.469973e-01
  2.869365e-01
  3.035144e-01
  2.912255e-01
  2.400773e-01
  1.544714e-01
  7.828642e-02
  4.234669e-02
  3.059231e-02
  2.758781e-02
  2.743961e-02
  2.888288e-02
  3.394251e-02
  5.117916e-02
  1.003133e-01
  1.768334e-01
  2.146941e-01
  1.800236e-01
  1.036745e-01
  5.816895e-02
  7.665070e-02
  2.330575e-01
  6.234968e-01
  8.801176e-01
  9.645554e-01
  9.885506e-01
  9.947550e-01
  9.946740e-01
  9.882470e-01
  9.602884e-01
  8.463255e-01
  5.106015e-01
  1.792750e-01
  2.133184e-01
  8.561870e-02
  3.943297e-02
  2.266115e-02
  1.708932e-02
  1.612259e-02
  1.743940e-02
  2.107989e-02
  3.089154e-02
  5.915662e-02
  1.214912e-01
  2.013332e-01
  2.590907e-01
  2.890654e-01
  2.993841e-01
  2.981099e-01
  2.890970e-01
  2.712078e-01
  2.390503e-01
  1.863713e-01
  1.178359e-01
  6.339416e-02
  3.570975e-02
  2.618811e-02
  2.369872e-02
  2.416515e-02
  2.992489e-02
  5.630402e-02
  1.546008e-01
  3.861205e-01
  6.527472e-01
  7.810795e-01
  8.245188e-01
  8.336403e-01
  8.141219e-01
  7.294751e-01
  4.978871e-01
  2.094728e-01
  7.238120e-02
  3.601163e-02
  2.842277e-02
  2.793663e-02
  3.114852e-02
  4.527797e-02
  1.049244e-01
  3.086313e-01
  5.987712e-01
  7.097076e-01
  6.126279e-01
  3.260134e-01
  1.114964e-01
  5.793818e-02
  9.676488e-02
  2.815343e-01
  6.376201e-01
  8.670125e-01
  9.540007e-01
  9.828635e-01
  9.913399e-01
  9.913646e-01
  9.820296e-01
  9.436953e-01
  8.104292e-01
  5.015503e-01
  6.254512e-01
  3.457057e-01
  1.786542e-01
  9.291006e-02
  5.101569e-02
  3.084757e-02
  2.234983e-02
  2.040298e-02
  2.216937e-02
  2.786162e-02
  3.908540e-02
  5.317143e-02
  6.386257e-02
  6.945469e-02
  7.125769e-02
  7.099820e-02
  6.949940e-02
  6.632755e-02
  6.022800e-02
  5.037108e-02
  3.841308e-02
  2.922831e-02
  2.464278e-02
  2.323934e-02
  2.352361e-02
  2.663126e-02
  4.244180e-02
  1.180414e-01
  4.053844e-01
  7.735506e-01
  9.202523e-01
  9.627512e-01
  9.741119e-01
  9.760787e-01
  9.705347e-01
  9.421446e-01
  8.291199e-01
  4.919985e-01
  1.435744e-01
  4.950886e-02
  3.092110e-02
  2.895092e-02
  3.459327e-02
  6.424214e-02
  2.035328e-01
  6.444614e-01
  8.934118e-01
  9.485601e-01
  9.020783e-01
  6.702126e-01
  2.172855e-01
  6.740240e-02
  4.760401e-02
  9.529428e-02
  2.568043e-01
  5.706252e-01
  8.200556e-01
  9.322378e-01
  9.734113e-01
  9.867103e-01
  9.881363e-01
  9.784132e-01
  9.420861e-01
  8.391508e-01
  9.030151e-01
  7.977075e-01
  6.242084e-01
  3.864370e-01
  2.110973e-01
  1.032288e-01
  4.801744e-02
  2.739056e-02
  2.184465e-02
  2.113347e-02
  2.206549e-02
  2.341913e-02
  2.430744e-02
  2.473208e-02
  2.528841e-02
  2.660518e-02
  2.873650e-02
  3.064152e-02
  3.082022e-02
  2.882659e-02
  2.591439e-02
  2.383788e-02
  2.301317e-02
  2.307146e-02
  2.420354e-02
  2.974894e-02
  5.840469e-02
  1.999872e-01
  6.730515e-01
  9.250704e-01
  9.861251e-01
  9.973408e-01
  9.992234e-01
  9.995250e-01
  9.986902e-01
  9.908255e-01
  9.412513e-01
  7.194109e-01
  2.226708e-01
  6.489545e-02
  3.377416e-02
  2.994402e-02
  3.734491e-02
  7.930057e-02
  2.778715e-01
  7.968607e-01
  9.696463e-01
  9.998314e-01
  9.754569e-01
  8.176374e-01
  3.008336e-01
  8.191367e-02
  3.554883e-02
  3.706747e-02
  7.699211e-02
  1.954862e-01
  4.469050e-01
  7.394887e-01
  8.949150e-01
  9.575927e-01
  9.801867e-01
  9.856197e-01
  9.797675e-01
  9.571800e-01
  9.761634e-01
  9.554137e-01
  9.134004e-01
  8.293502e-01
  6.641685e-01
  3.727849e-01
  1.456695e-01
  5.272429e-02
  2.747174e-02
  2.106552e-02
  1.896240e-02
  1.783786e-02
  1.724533e-02
  1.777630e-02
  2.078073e-02
  2.794768e-02
  3.927228e-02
  4.956285e-02
  5.154239e-02
  4.396361e-02
  3.357717e-02
  2.701885e-02
  2.441686e-02
  2.384299e-02
  2.493621e-02
  3.170562e-02
  6.781552e-02
  2.457406e-01
  7.722903e-01
  9.619524e-01
  9.980136e-01
  9.999000e-01
  9.999000e-01
  9.999000e-01
  9.999000e-01
  9.985244e-01
  9.655907e-01
  7.877299e-01
  2.589372e-01
  7.250262e-02
  3.535697e-02
  3.050211e-02
  3.787144e-02
  8.073356e-02
  2.838106e-01
  8.051937e-01
  9.722141e-01
  9.999000e-01
  9.786733e-01
  8.282000e-01
  3.112262e-01
  8.436276e-02
  3.324089e-02
  2.332558e-02
  2.840671e-02
  5.542088e-02
  1.335436e-01
  3.169311e-01
  6.190588e-01
  8.319478e-01
  9.320161e-01
  9.710779e-01
  9.839100e-01
  9.846322e-01
  9.900140e-01
  9.902877e-01
  9.846683e-01
  9.679108e-01
  9.190919e-01
  7.644167e-01
  3.947569e-01
  1.152409e-01
  4.059839e-02
  2.360817e-02
  1.883045e-02
  1.690991e-02
  1.697814e-02
  2.142526e-02
  3.648441e-02
  7.162557e-02
  1.286032e-01
  1.784746e-01
  1.821633e-01
  1.345691e-01
  7.461001e-02
  4.040437e-02
  2.842013e-02
  2.509983e-02
  2.529343e-02
  3.133171e-02
  6.476668e-02
  2.302676e-01
  7.418631e-01
  9.509762e-01
  9.945149e-01
  9.999000e-01
  9.999000e-01
  9.999000e-01
  9.999000e-01
  9.937884e-01
  9.503093e-01
  7.446222e-01
  2.354555e-01
  6.811394e-02
  3.517093e-02
  3.104596e-02
  3.695817e-02
  6.913938e-02
  2.208505e-01
  6.831535e-01
  9.130398e-01
  9.609887e-01
  9.230595e-01
  7.143694e-01
  2.411315e-01
  7.070501e-02
  3.144789e-02
  2.135608e-02
  1.866192e-02
  2.197090e-02
  3.823902e-02
  8.680475e-02
  2.099299e-01
  4.563826e-01
  7.398103e-01
  8.949583e-01
  9.590636e-01
  9.825756e-01
  9.810767e-01
  9.942363e-01
  9.987932e-01
  9.981621e-01
  9.868304e-01
  9.251545e-01
  6.731116e-01
  2.019085e-01
  5.816868e-02
  2.705151e-02
  1.935836e-02
  1.751066e-02
  2.162828e-02
  4.252758e-02
  1.095520e-01
  2.634382e-01
  4.915350e-01
  6.543398e-01
  6.568858e-01
  4.852428e-01
  2.307479e-01
  8.185288e-02
  3.776591e-02
  2.703721e-02
  2.520305e-02
  2.884883e-02
  5.110946e-02
  1.612329e-01
  5.589535e-01
  8.699212e-01
  9.622745e-01
  9.852559e-01
  9.908109e-01
  9.904705e-01
  9.841267e-01
  9.597811e-01
  8.654611e-01
  5.549456e-01
  1.631450e-01
  5.495009e-02
  3.483269e-02
  3.439937e-02
  4.032111e-02
  5.823838e-02
  1.303173e-01
  3.754255e-01
  6.718647e-01
  7.667318e-01
  6.847850e-01
  3.950268e-01
  1.319304e-01
  5.078820e-02
  2.993346e-02
  2.282334e-02
  1.886532e-02
  1.670586e-02
  1.780536e-02
  2.671513e-02
  5.550584e-02
  1.334470e-01
  3.171078e-01
  6.280250e-01
  8.469661e-01
  9.445502e-01
  9.264465e-01
  9.766538e-01
  9.945730e-01
  9.999000e-01
  9.990462e-01
  9.621257e-01
  7.690453e-01
  2.478289e-01
  6.830606e-02
  2.911948e-02
  2.010305e-02
  2.103102e-02
  4.021129e-02
  1.200126e-01
  3.526317e-01
  6.931889e-01
  8.700629e-01
  9.324504e-01
  9.312918e-01
  8.460334e-01
  5.603642e-01
  1.718373e-01
  5.504753e-02
  2.976875e-02
  2.479150e-02
  2.566635e-02
  3.560531e-02
  8.231126e-02
  2.606375e-01
  6.017274e-01
  8.132725e-01
  8.974173e-01
  9.272107e-01
  9.258808e-01
  8.933229e-01
  8.062591e-01
  5.919384e-01
  2.581132e-01
  8.574004e-02
  4.296902e-02
  4.003559e-02
  5.282560e-02
  7.100526e-02
  8.450333e-02
  1.002636e-01
  1.484729e-01
  2.250760e-01
  2.586480e-01
  2.185967e-01
  1.291933e-01
  6.419959e-02
  4.160853e-02
  3.430948e-02
  2.937740e-02
  2.399857e-02
  1.918010e-02
  1.607466e-02
  1.545246e-02
  1.976636e-02
  3.667950e-02
  8.782400e-02
  2.258438e-01
  5.104159e-01
  7.913675e-01
  7.208439e-01
  8.891156e-01
  9.552391e-01
  9.775135e-01
  9.772090e-01
  9.274178e-01
  6.991945e-01
  2.186800e-01
  6.319736e-02
  2.850963e-02
  2.192655e-02
  3.321602e-02
  9.817432e-02
  3.294578e-01
  7.198877e-01
  9.140251e-01
  9.751554e-01
  9.925239e-01
  9.917024e-01
  9.546365e-01
  7.720897e-01
  2.649706e-01
  7.304590e-02
  3.206143e-02
  2.404445e-02
  2.306059e-02
  2.600737e-02
  3.955002e-02
  8.630254e-02
  1.960724e-01
  3.553498e-01
  5.304252e-01
  6.320468e-01
  6.278485e-01
  5.196313e-01
  3.464849e-01
  1.934172e-01
  8.909619e-02
  4.706281e-02
  4.267965e-02
  6.708632e-02
  1.386359e-01
  2.268504e-01
  2.615224e-01
  2.236865e-01
  1.461591e-01
  9.994875e-02
  8.504275e-02
  7.231117e-02
  5.754638e-02
  5.298607e-02
  6.063748e-02
  6.615408e-02
  5.984040e-02
  4.395966e-02
  2.892101e-02
  2.030247e-02
  1.607263e-02
  1.446069e-02
  1.631506e-02
  2.692430e-02
  6.265320e-02
  1.658501e-01
  4.053535e-01
  2.952568e-01
  5.710517e-01
  7.619575e-01
  8.342293e-01
  8.340006e-01
  7.303211e-01
  4.193773e-01
  1.314426e-01
  4.669416e-02
  2.638614e-02
  2.787716e-02
  6.777105e-02
  2.439944e-01
  6.584130e-01
  9.044420e-01
  9.775551e-01
  9.962250e-01
  9.999000e-01
  9.999000e-01
  9.773733e-01
  8.371312e-01
  3.168498e-01
  8.272163e-02
  3.244059e-02
  2.280320e-02
  2.106610e-02
  2.145788e-02
  2.445676e-02
  3.405932e-02
  5.594744e-02
  9.078935e-02
  1.332299e-01
  1.621011e-01
  1.612394e-01
  1.316796e-01
  9.096345e-02
  5.900180e-02
  4.070152e-02
  3.819534e-02
  5.922230e-02
  1.536536e-01
  4.405639e-01
  7.092891e-01
  7.734179e-01
  6.676141e-01
  3.632866e-01
  1.268187e-01
  5.982752e-02
  4.720167e-02
  5.683798e-02
  1.007140e-01
  1.783962e-01
  2.265942e-01
  2.071097e-01
  1.332878e-01
  6.388769e-02
  3.197505e-02
  2.072871e-02
  1.641951e-02
  1.466552e-02
  1.552328e-02
  2.280558e-02
  4.829074e-02
  1.219059e-01
  8.069548e-02
  1.596374e-01
  2.496717e-01
  3.146727e-01
  3.213270e-01
  2.528727e-01
  1.394176e-01
  6.060776e-02
  3.237012e-02
  2.618613e-02
  4.433579e-02
  1.503395e-01
  5.116590e-01
  8.592588e-01
  9.679199e-01
  9.940718e-01
  9.996458e-01
  9.999000e-01
  9.997815e-01
  9.782025e-01
  8.419901e-01
  3.180474e-01
  8.077681e-02
  3.042102e-02
  2.103371e-02
  1.933234e-02
  1.912788e-02
  1.957897e-02
  2.119535e-02
  2.487176e-02
  3.084318e-02
  3.818851e-02
  4.353364e-02
  4.402203e-02
  3.986797e-02
  3.426332e-02
  3.071363e-02
  3.116178e-02
  4.107169e-02
  8.798922e-02
  2.891736e-01
  7.569601e-01
  9.357610e-01
  9.638590e-01
  9.089064e-01
  6.633517e-01
  2.106844e-01
  7.184293e-02
  5.463203e-02
  1.034805e-01
  2.965685e-01
  5.977206e-01
  7.363147e-01
  6.955082e-01
  4.641758e-01
  1.846512e-01
  6.266895e-02
  2.944900e-02
  2.052607e-02
  1.741211e-02
  1.616045e-02
  1.682756e-02
  2.199991e-02
  3.869760e-02
  3.185182e-02
  4.756816e-02
  6.735889e-02
  8.359041e-02
  8.712629e-02
  7.371055e-02
  5.094921e-02
  3.353050e-02
  2.604497e-02
  3.106372e-02
  8.098960e-02
  3.098108e-01
  7.611917e-01
  9.449612e-01
  9.890957e-01
  9.984590e-01
  9.999000e-01
  9.999000e-01
  9.974638e-01
  9.696062e-01
  8.120999e-01
  2.791013e-01
  6.954496e-02
  2.659033e-02
  1.891794e-02
  1.769876e-02
  1.758777e-02
  1.772144e-02
  1.815941e-02
  1.919361e-02
  2.102193e-02
  2.348087e-02
  2.575223e-02
  2.685220e-02
  2.668802e-02
  2.630601e-02
  2.706065e-02
  3.079149e-02
  4.502527e-02
  1.084247e-01
  3.762201e-01
  8.565603e-01
  9.847736e-01
  9.999000e-01
  9.643555e-01
  7.744539e-01
  2.605259e-01
  8.428618e-02
  7.296787e-02