# vtk DataFile Version 2.0
time_10.vtk
ASCII
DATASET STRUCTURED_GRID
DIMENSIONS    64    64     1
POINTS    4096 float
  0.000000e+00   0.000000e+00   0.000000e+00
  0.000000e+00   1.000000e+00   0.000000e+00
  0.000000e+00   2.000000e+00   0.000000e+00
  0.000000e+00   3.000000e+00   0.000000e+00
  0.000000e+00   4.000000e+00   0.000000e+00
  0.000000e+00   5.000000e+00   0.000000e+00
  0.000000e+00   6.000000e+00   0.000000e+00
  0.000000e+00   7.000000e+00   0.000000e+00
  0.000000e+00   8.000000e+00   0.000000e+00
  0.000000e+00   9.000000e+00   0.000000e+00
  0.000000e+00   1.000000e+01   0.000000e+00
  0.000000e+00   1.100000e+01   0.000000e+00
  0.000000e+00   1.200000e+01   0.000000e+00
  0.000000e+00   1.300000e+01   0.000000e+00
  0.000000e+00   1.400000e+01   0.000000e+00
  0.000000e+00   1.500000e+01   0.000000e+00
  0.000000e+00   1.600000e+01   0.000000e+00
  0.000000e+00   1.700000e+01   0.000000e+00
  0.000000e+00   1.800000e+01   0.000000e+00
  0.000000e+00   1.900000e+01   0.000000e+00
  0.000000e+00   2.000000e+01   0.000000e+00
  0.000000e+00   2.100000e+01   0.000000e+00
  0.000000e+00   2.200000e+01   0.000000e+00
  0.000000e+00   2.300000e+01   0.000000e+00
  0.000000e+00   2.400000e+01   0.000000e+00
  0.000000e+00   2.500000e+01   0.000000e+00
  0.000000e+00   2.600000e+01   0.000000e+00
  0.000000e+00   2.700000e+01   0.000000e+00
  0.000000e+00   2.800000e+01   0.000000e+00
  0.000000e+00   2.900000e+01   0.000000e+00
  0.000000e+00   3.000000e+01   0.000000e+00
  0.000000e+00   3.100000e+01   0.000000e+00
  0.000000e+00   3.200000e+01   0.000000e+00
  0.000000e+00   3.300000e+01   0.000000e+00
  0.000000e+00   3.400000e+01   0.000000e+00
  0.000000e+00   3.500000e+01   0.000000e+00
  0.000000e+00   3.600000e+01   0.000000e+00
  0.000000e+00   3.700000e+01   0.000000e+00
  0.000000e+00   3.800000e+01   0.000000e+00
  0.000000e+00   3.900000e+01   0.000000e+00
  0.000000e+00   4.000000e+01   0.000000e+00
  0.000000e+00   4.100000e+01   0.000000e+00
  0.000000e+00   4.200000e+01   0.000000e+00
  0.000000e+00   4.300000e+01   0.000000e+00
  0.000000e+00   4.400000e+01   0.000000e+00
  0.000000e+00   4.500000e+01   0.000000e+00
  0.000000e+00   4.600000e+01   0.000000e+00
  0.000000e+00   4.700000e+01   0.000000e+00
  0.000000e+00   4.800000e+01   0.000000e+00
  0.000000e+00   4.900000e+01   0.000000e+00
  0.000000e+00   5.000000e+01   0.000000e+00
  0.000000e+00   5.100000e+01   0.000000e+00
  0.000000e+00   5.200000e+01   0.000000e+00
  0.000000e+00   5.300000e+01   0.000000e+00
  0.000000e+00   5.400000e+01   0.000000e+00
  0.000000e+00   5.500000e+01   0.000000e+00
  0.000000e+00   5.600000e+01   0.000000e+00
  0.000000e+00   5.700000e+01   0.000000e+00
  0.000000e+00   5.800000e+01   0.000000e+00
  0.000000e+00   5.900000e+01   0.000000e+00
  0.000000e+00   6.000000e+01   0.000000e+00
  0.000000e+00   6.100000e+01   0.000000e+00
  0.000000e+00   6.200000e+01   0.000000e+00
  0.000000e+00   6.300000e+01   0.000000e+00
  1.000000e+00   0.000000e+00   0.000000e+00
  1.000000e+00   1.000000e+00   0.000000e+00
  1.000000e+00   2.000000e+00   0.000000e+00
  1.000000e+00   3.000000e+00   0.000000e+00
  1.000000e+00   4.000000e+00   0.000000e+00
  1.000000e+00   5.000000e+00   0.000000e+00
  1.000000e+00   6.000000e+00   0.000000e+00
  1.000000e+00   7.000000e+00   0.000000e+00
  1.000000e+00   8.000000e+00   0.000000e+00
  1.000000e+00   9.000000e+00   0.000000e+00
  1.000000e+00   1.000000e+01   0.000000e+00
  1.000000e+00   1.100000e+01   0.000000e+00
  1.000000e+00   1.200000e+01   0.000000e+00
  1.000000e+00   1.300000e+01   0.000000e+00
  1.000000e+00   1.400000e+01   0.000000e+00
  1.000000e+00   1.500000e+01   0.000000e+00
  1.000000e+00   1.600000e+01   0.000000e+00
  1.000000e+00   1.700000e+01   0.000000e+00
  1.000000e+00   1.800000e+01   0.000000e+00
  1.000000e+00   1.900000e+01   0.000000e+00
  1.000000e+00   2.000000e+01   0.000000e+00
  1.000000e+00   2.100000e+01   0.000000e+00
  1.000000e+00   2.200000e+01   0.000000e+00
  1.000000e+00   2.300000e+01   0.000000e+00
  1.000000e+00   2.400000e+01   0.000000e+00
  1.000000e+00   2.500000e+01   0.000000e+00
  1.000000e+00   2.600000e+01   0.000000e+00
  1.000000e+00   2.700000e+01   0.000000e+00
  1.000000e+00   2.800000e+01   0.000000e+00
  1.000000e+00   2.900000e+01   0.000000e+00
  1.000000e+00   3.000000e+01   0.000000e+00
  1.000000e+00   3.100000e+01   0.000000e+00
  1.000000e+00   3.200000e+01   0.000000e+00
  1.000000e+00   3.300000e+01   0.000000e+00
  1.000000e+00   3.400000e+01   0.000000e+00
  1.000000e+00   3.500000e+01   0.000000e+00
  1.000000e+00   3.600000e+01   0.000000e+00
  1.000000e+00   3.700000e+01   0.000000e+00
  1.000000e+00   3.800000e+01   0.000000e+00
  1.000000e+00   3.900000e+01   0.000000e+00
  1.000000e+00   4.000000e+01   0.000000e+00
  1.000000e+00   4.100000e+01   0.000000e+00
  1.000000e+00   4.200000e+01   0.000000e+00
  1.000000e+00   4.300000e+01   0.000000e+00
  1.000000e+00   4.400000e+01   0.000000e+00
  1.000000e+00   4.500000e+01   0.000000e+00
  1.000000e+00   4.600000e+01   0.000000e+00
  1.000000e+00   4.700000e+01   0.000000e+00
  1.000000e+00   4.800000e+01   0.000000e+00
  1.000000e+00   4.900000e+01   0.000000e+00
  1.000000e+00   5.000000e+01   0.000000e+00
  1.000000e+00   5.100000e+01   0.000000e+00
  1.000000e+00   5.200000e+01   0.000000e+00
  1.000000e+00   5.300000e+01   0.000000e+00
  1.000000e+00   5.400000e+01   0.000000e+00
  1.000000e+00   5.500000e+01   0.000000e+00
  1.000000e+00   5.600000e+01   0.000000e+00
  1.000000e+00   5.700000e+01   0.000000e+00
  1.000000e+00   5.800000e+01   0.000000e+00
  1.000000e+00   5.900000e+01   0.000000e+00
  1.000000e+00   6.000000e+01   0.000000e+00
  1.000000e+00   6.100000e+01   0.000000e+00
  1.000000e+00   6.200000e+01   0.000000e+00
  1.000000e+00   6.300000e+01   0.000000e+00
  2.000000e+00   0.000000e+00   0.000000e+00
  2.000000e+00   1.000000e+00   0.000000e+00
  2.000000e+00   2.000000e+00   0.000000e+00
  2.000000e+00   3.000000e+00   0.000000e+00
  2.000000e+00   4.000000e+00   0.000000e+00
  2.000000e+00   5.000000e+00   0.000000e+00
  2.000000e+00   6.000000e+00   0.000000e+00
  2.000000e+00   7.000000e+00   0.000000e+00
  2.000000e+00   8.000000e+00   0.000000e+00
  2.000000e+00   9.000000e+00   0.000000e+00
  2.000000e+00   1.000000e+01   0.000000e+00
  2.000000e+00   1.100000e+01   0.000000e+00
  2.000000e+00   1.200000e+01   0.000000e+00
  2.000000e+00   1.300000e+01   0.000000e+00
  2.000000e+00   1.400000e+01   0.000000e+00
  2.000000e+00   1.500000e+01   0.000000e+00
  2.000000e+00   1.600000e+01   0.000000e+00
  2.000000e+00   1.700000e+01   0.000000e+00
  2.000000e+00   1.800000e+01   0.000000e+00
  2.000000e+00   1.900000e+01   0.000000e+00
  2.000000e+00   2.000000e+01   0.000000e+00
  2.000000e+00   2.100000e+01   0.000000e+00
  2.000000e+00   2.200000e+01   0.000000e+00
  2.000000e+00   2.300000e+01   0.000000e+00
  2.000000e+00   2.400000e+01   0.000000e+00
  2.000000e+00   2.500000e+01   0.000000e+00
  2.000000e+00   2.600000e+01   0.000000e+00
  2.000000e+00   2.700000e+01   0.000000e+00
  2.000000e+00   2.800000e+01   0.000000e+00
  2.000000e+00   2.900000e+01   0.000000e+00
  2.000000e+00   3.000000e+01   0.000000e+00
  2.000000e+00   3.100000e+01   0.000000e+00
  2.000000e+00   3.200000e+01   0.000000e+00
  2.000000e+00   3.300000e+01   0.000000e+00
  2.000000e+00   3.400000e+01   0.000000e+00
  2.000000e+00   3.500000e+01   0.000000e+00
  2.000000e+00   3.600000e+01   0.000000e+00
  2.000000e+00   3.700000e+01   0.000000e+00
  2.000000e+00   3.800000e+01   0.000000e+00
  2.000000e+00   3.900000e+01   0.000000e+00
  2.000000e+00   4.000000e+01   0.000000e+00
  2.000000e+00   4.100000e+01   0.000000e+00
  2.000000e+00   4.200000e+01   0.000000e+00
  2.000000e+00   4.300000e+01   0.000000e+00
  2.000000e+00   4.400000e+01   0.000000e+00
  2.000000e+00   4.500000e+01   0.000000e+00
  2.000000e+00   4.600000e+01   0.000000e+00
  2.000000e+00   4.700000e+01   0.000000e+00
  2.000000e+00   4.800000e+01   0.000000e+00
  2.000000e+00   4.900000e+01   0.000000e+00
  2.000000e+00   5.000000e+01   0.000000e+00
  2.000000e+00   5.100000e+01   0.000000e+00
  2.000000e+00   5.200000e+01   0.000000e+00
  2.000000e+00   5.300000e+01   0.000000e+00
  2.000000e+00   5.400000e+01   0.000000e+00
  2.000000e+00   5.500000e+01   0.000000e+00
  2.000000e+00   5.600000e+01   0.000000e+00
  2.000000e+00   5.700000e+01   0.000000e+00
  2.000000e+00   5.800000e+01   0.000000e+00
  2.000000e+00   5.900000e+01   0.000000e+00
  2.000000e+00   6.000000e+01   0.000000e+00
  2.000000e+00   6.100000e+01   0.000000e+00
  2.000000e+00   6.200000e+01   0.000000e+00
  2.000000e+00   6.300000e+01   0.000000e+00
  3.000000e+00   0.000000e+00   0.000000e+00
  3.000000e+00   1.000000e+00   0.000000e+00
  3.000000e+00   2.000000e+00   0.000000e+00
  3.000000e+00   3.000000e+00   0.000000e+00
  3.000000e+00   4.000000e+00   0.000000e+00
  3.000000e+00   5.000000e+00   0.000000e+00
  3.000000e+00   6.000000e+00   0.000000e+00
  3.000000e+00   7.000000e+00   0.000000e+00
  3.000000e+00   8.000000e+00   0.000000e+00
  3.000000e+00   9.000000e+00   0.000000e+00
  3.000000e+00   1.000000e+01   0.000000e+00
  3.000000e+00   1.100000e+01   0.000000e+00
  3.000000e+00   1.200000e+01   0.000000e+00
  3.000000e+00   1.300000e+01   0.000000e+00
  3.000000e+00   1.400000e+01   0.000000e+00
  3.000000e+00   1.500000e+01   0.000000e+00
  3.000000e+00   1.600000e+01   0.000000e+00
  3.000000e+00   1.700000e+01   0.000000e+00
  3.000000e+00   1.800000e+01   0.000000e+00
  3.000000e+00   1.900000e+01   0.000000e+00
  3.000000e+00   2.000000e+01   0.000000e+00
  3.000000e+00   2.100000e+01   0.000000e+00
  3.000000e+00   2.200000e+01   0.000000e+00
  3.000000e+00   2.300000e+01   0.000000e+00
  3.000000e+00   2.400000e+01   0.000000e+00
  3.000000e+00   2.500000e+01   0.000000e+00
  3.000000e+00   2.600000e+01   0.000000e+00
[...]
POINT_DATA  4096
SCALARS CON float 1
LOOKUP_TABLE default
  3.639777e-01
  3.525400e-01
  3.665583e-01
  4.028932e-01
  4.403901e-01
  4.507096e-01
  4.276931e-01
  3.932158e-01
  3.720873e-01
  3.733566e-01
  3.908370e-01
  4.088107e-01
  4.143426e-01
  4.087075e-01
  4.013250e-01
  3.967833e-01
  3.927004e-01
  3.869575e-01
  3.831465e-01
  3.862942e-01
  3.940624e-01
  3.965340e-01
  3.877860e-01
  3.744733e-01
  3.690701e-01
  3.780167e-01
  3.968490e-01
  4.134773e-01
  4.190555e-01
  4.168221e-01
  4.171739e-01
  4.253774e-01
  4.356542e-01
  4.366855e-01
  4.231522e-01
  4.005924e-01
  3.797045e-01
  3.690808e-01
  3.724822e-01
  3.888560e-01
  4.110213e-01
  4.250615e-01
  4.197176e-01
  3.998157e-01
  3.827235e-01
  3.807329e-01
  3.912647e-01
  4.007648e-01
  3.983535e-01
  3.865398e-01
  3.759691e-01
  3.741815e-01
  3.824193e-01
  3.980940e-01
  4.162963e-01
  4.296317e-01
  4.306516e-01
  4.184913e-01
  4.022388e-01
  3.943711e-01
  4.001231e-01
  4.112322e-01
  4.103789e-01
  3.900475e-01
  3.586619e-01
  3.489129e-01
  3.632250e-01
  3.981419e-01
  4.335450e-01
  4.433969e-01
  4.228395e-01
  3.922517e-01
  3.733736e-01
  3.729303e-01
  3.844260e-01
  3.956401e-01
  3.991873e-01
  3.980415e-01
  3.982782e-01
  4.003694e-01
  4.004043e-01
  3.978553e-01
  3.983721e-01
  4.062904e-01
  4.161413e-01
  4.157105e-01
  4.002955e-01
  3.799867e-01
  3.694235e-01
  3.751374e-01
  3.923692e-01
  4.089700e-01
  4.152309e-01
  4.125829e-01
  4.106926e-01
  4.173122e-01
  4.318497e-01
  4.458835e-01
  4.487973e-01
  4.350248e-01
  4.089859e-01
  3.836440e-01
  3.719371e-01
  3.789519e-01
  3.989868e-01
  4.165426e-01
  4.175919e-01
  4.050983e-01
  3.960554e-01
  4.023255e-01
  4.186686e-01
  4.276038e-01
  4.179549e-01
  3.968851e-01
  3.797270e-01
  3.748798e-01
  3.817323e-01
  3.956800e-01
  4.111873e-01
  4.219037e-01
  4.219973e-01
  4.110302e-01
  3.967577e-01
  3.898701e-01
  3.948386e-01
  4.041213e-01
  4.021854e-01
  3.826909e-01
  3.724922e-01
  3.612687e-01
  3.727358e-01
  4.018173e-01
  4.279631e-01
  4.297814e-01
  4.084014e-01
  3.847366e-01
  3.757723e-01
  3.827131e-01
  3.941184e-01
  3.966407e-01
  3.887905e-01
  3.811847e-01
  3.827638e-01
  3.923644e-01
  4.021962e-01
  4.074350e-01
  4.113662e-01
  4.188469e-01
  4.271471e-01
  4.275416e-01
  4.164645e-01
  4.007701e-01
  3.903222e-01
  3.897059e-01
  3.965082e-01
  4.034537e-01
  4.038631e-01
  3.975944e-01
  3.910816e-01
  3.921897e-01
  4.052180e-01
  4.274694e-01
  4.476175e-01
  4.505957e-01
  4.305636e-01
  3.989601e-01
  3.750439e-01
  3.700273e-01
  3.818132e-01
  3.981715e-01
  4.067235e-01
  4.076843e-01
  4.126159e-01
  4.287454e-01
  4.477481e-01
  4.520615e-01
  4.345450e-01
  4.069785e-01
  3.860229e-01
  3.783850e-01
  3.814432e-01
  3.900818e-01
  3.998213e-01
  4.058666e-01
  4.034750e-01
  3.925562e-01
  3.805568e-01
  3.776510e-01
  3.883323e-01
  4.051175e-01
  4.107407e-01
  3.958361e-01
  4.007690e-01
  3.833620e-01
  3.878997e-01
  4.077433e-01
  4.212799e-01
  4.117118e-01
  3.870523e-01
  3.699536e-01
  3.740574e-01
  3.957013e-01
  4.160478e-01
  4.156032e-01
  3.960388e-01
  3.774455e-01
  3.749568e-01
  3.876229e-01
  4.031940e-01
  4.102564e-01
  4.088854e-01
  4.071243e-01
  4.097091e-01
  4.150481e-01
  4.200812e-01
  4.226384e-01
  4.203504e-01
  4.128781e-01
  4.037237e-01
  3.959769e-01
  3.888150e-01
  3.802453e-01
  3.713628e-01
  3.673399e-01
  3.746505e-01
  3.958534e-01
  4.237877e-01
  4.415958e-01
  4.359292e-01
  4.112263e-01
  3.851393e-01
  3.715918e-01
  3.728143e-01
  3.824648e-01
  3.931243e-01
  4.037966e-01
  4.190119e-01
  4.390536e-01
  4.539022e-01
  4.512703e-01
  4.312522e-01
  4.074355e-01
  3.924078e-01
  3.880543e-01
  3.896010e-01
  3.931354e-01
  3.971029e-01
  3.986680e-01
  3.932322e-01
  3.805330e-01
  3.688009e-01
  3.695367e-01
  3.884971e-01
  4.179117e-01
  4.359134e-01
  4.266253e-01
  4.239006e-01
  3.991253e-01
  3.966393e-01
  4.095675e-01
  4.150643e-01
  3.977934e-01
  3.694223e-01
  3.546470e-01
  3.671663e-01
  4.023699e-01
  4.361501e-01
  4.410142e-01
  4.172771e-01
  3.916081e-01
  3.853993e-01
  3.983252e-01
  4.133718e-01
  4.130248e-01
  3.968403e-01
  3.792388e-01
  3.731488e-01
  3.831753e-01
  4.069674e-01
  4.334272e-01
  4.449267e-01
  4.333184e-01
  4.092193e-01
  3.885791e-01
  3.769713e-01
  3.703241e-01
  3.639551e-01
  3.587292e-01
  3.604137e-01
  3.741322e-01
  3.980975e-01
  4.212233e-01
  4.305526e-01
  4.232313e-01
  4.073238e-01
  3.923169e-01
  3.832067e-01
  3.810759e-01
  3.854220e-01
  3.959183e-01
  4.112404e-01
  4.256898e-01
  4.303340e-01
  4.213503e-01
  4.058756e-01
  3.957625e-01
  3.961567e-01
  4.023385e-01
  4.070171e-01
  4.086470e-01
  4.100564e-01
  4.103697e-01
  4.034515e-01
  3.872949e-01
  3.714471e-01
  3.706302e-01
  3.930816e-01
  4.312212e-01
  4.588934e-01
  4.535760e-01
  4.226633e-01
  3.954639e-01
  3.914101e-01
  4.052387e-01
  4.135063e-01
  3.978833e-01
  3.680981e-01
  3.504699e-01
  3.616603e-01
  3.993134e-01
  4.392637e-01
  4.506156e-01
  4.307011e-01
  4.068468e-01
  4.028956e-01
  4.184897e-01
  4.322781e-01
  4.222771e-01
  3.900930e-01
  3.576151e-01
  3.434451e-01
  3.547094e-01
  3.898570e-01
  4.334945e-01
  4.570092e-01
  4.451293e-01
  4.130377e-01
  3.861401e-01
  3.746564e-01
  3.733447e-01
  3.733985e-01
  3.710684e-01
  3.689987e-01
  3.722607e-01
  3.836782e-01
  4.011583e-01
  4.189204e-01
  4.313474e-01
  4.344310e-01
  4.262446e-01
  4.100900e-01
  3.946230e-01
  3.877457e-01
  3.912889e-01
  4.001456e-01
  4.049190e-01
  3.990554e-01
  3.859413e-01
  3.767436e-01
  3.803188e-01
  3.955293e-01
  4.120330e-01
  4.204826e-01
  4.223721e-01
  4.253702e-01
  4.301143e-01
  4.269252e-01
  4.090181e-01
  3.858453e-01
  3.763999e-01
  3.924696e-01
  4.280764e-01
  4.568201e-01
  4.531013e-01
  4.008122e-01
  3.772169e-01
  3.763568e-01
  3.968722e-01
  4.173327e-01
  4.141043e-01
  3.888158e-01
  3.665480e-01
  3.680784e-01
  3.944549e-01
  4.253623e-01
  4.340726e-01
  4.180645e-01
  4.012969e-01
  4.049763e-01
  4.276325e-01
  4.454048e-01
  4.334718e-01
  3.944976e-01
  3.548834e-01
  3.361902e-01
  3.458247e-01
  3.819946e-01
  4.287843e-01
  4.556890e-01
  4.457245e-01
  4.144951e-01
  3.890317e-01
  3.809707e-01
  3.858013e-01
  3.937922e-01
  3.973969e-01
  3.937921e-01
  3.853953e-01
  3.791091e-01
  3.823463e-01
  3.982900e-01
  4.230800e-01
  4.445670e-01
  4.485130e-01
  4.324200e-01
  4.092530e-01
  3.942505e-01
  3.921604e-01
  3.963141e-01
  3.955042e-01
  3.844971e-01
  3.698456e-01
  3.636107e-01
  3.723451e-01
  3.914921e-01
  4.082353e-01
  4.138506e-01
  4.136711e-01
  4.194252e-01
  4.329196e-01
  4.405587e-01
  4.279321e-01
  4.002993e-01
  3.795864e-01
  3.822676e-01
  4.060966e-01
  4.290791e-01
  4.267605e-01
  3.806832e-01
  3.618963e-01
  3.626676e-01
  3.872750e-01
  4.201357e-01
  4.350432e-01
  4.225140e-01
  4.003311e-01
  3.909146e-01
  3.992786e-01
  4.107694e-01
  4.070220e-01
  3.891357e-01
  3.769506e-01
  3.866211e-01
  4.156419e-01
  4.408910e-01
  4.370924e-01
  4.051708e-01
  3.698314e-01
  3.520526e-01
  3.584321e-01
  3.860045e-01
  4.210104e-01
  4.404012e-01
  4.322599e-01
  4.088883e-01
  3.906296e-01
  3.867667e-01
  3.953430e-01
  4.097535e-01
  4.211460e-01
  4.198772e-01
  4.024953e-01
  3.785893e-01
  3.644891e-01
  3.705355e-01
  3.955388e-01
  4.253343e-01
  4.394063e-01
  4.297708e-01
  4.088472e-01
  3.942730e-01
  3.926360e-01
  3.978390e-01
  3.988065e-01
  3.901913e-01
  3.776610e-01
  3.716314e-01
  3.769281e-01
  3.881265e-01
  3.938858e-01
  3.893006e-01
  3.831492e-01
  3.888497e-01
  4.094074e-01
  4.302430e-01
  4.301296e-01
  4.061162e-01
  3.788088e-01
  3.692366e-01
  3.807197e-01
  3.977988e-01
  3.990032e-01
  3.792068e-01
  3.628409e-01
  3.594174e-01
  3.787023e-01
  4.131247e-01
  4.403269e-01
  4.438614e-01
  4.304782e-01
  4.180352e-01
  4.135964e-01
  4.084004e-01
  3.921536e-01
  3.697691e-01
  3.577968e-01
  3.678312e-01
  3.967475e-01
  4.250399e-01
  4.312196e-01
  4.147957e-01
  3.939061e-01
  3.832914e-01
  3.855164e-01
  3.965391e-01
  4.090495e-01
  4.137782e-01
  4.070761e-01
  3.951832e-01
  3.864584e-01
  3.848367e-01
  3.919971e-01
  4.082648e-01
  4.274475e-01
  4.342417e-01
  4.163750e-01
  3.820750e-01
  3.544326e-01
  3.492356e-01
  3.668537e-01
  3.941537e-01
  4.112406e-01
  4.085386e-01
  3.952199e-01
  3.862015e-01
  3.877906e-01
  3.960491e-01
  4.026043e-01
  4.021775e-01
  3.966823e-01
  3.919110e-01
  3.906784e-01
  3.893510e-01
  3.815312e-01
  3.669847e-01
  3.552600e-01
  3.582762e-01
  3.798914e-01
  4.085342e-01
  4.212345e-01
  4.067246e-01
  3.797616e-01
  3.634887e-01
  3.672398e-01
  3.821250e-01
  3.893296e-01
  3.969919e-01
  3.821827e-01
  3.702929e-01
  3.751060e-01
  3.965876e-01
  4.208395e-01
  4.327977e-01
  4.313867e-01
  4.262286e-01
  4.221373e-01
  4.134939e-01
  3.948043e-01
  3.726063e-01
  3.610194e-01
  3.684557e-01
  3.908166e-01
  4.129008e-01
  4.212752e-01
  4.182412e-01
  4.153359e-01
  4.164195e-01
  4.150383e-01
  4.064600e-01
  3.944461e-01
  3.851375e-01
  3.814836e-01
  3.825165e-01
  3.834428e-01
  3.811019e-01
  3.811175e-01
  3.931605e-01
  4.173209e-01
  4.362871e-01
  4.284412e-01
  3.952385e-01
  3.619864e-01
  3.493205e-01
  3.592093e-01
  3.795414e-01
  3.935029e-01
  3.934317e-01
  3.857271e-01
  3.804452e-01
  3.819277e-01
  3.889264e-01
  3.980441e-01
  4.059643e-01
  4.103835e-01
  4.101728e-01
  4.051497e-01
  3.952611e-01
  3.805592e-01
  3.636936e-01
  3.514603e-01
  3.520242e-01
  3.695508e-01
  3.973815e-01
  4.163453e-01
  4.109514e-01
  3.881318e-01
  3.693827e-01
  3.688197e-01
  3.837878e-01
  3.982290e-01
  4.207355e-01
  4.109853e-01
  3.928438e-01
  3.813526e-01
  3.827743e-01
  3.920474e-01
  4.003652e-01
  4.048030e-01
  4.085611e-01
  4.126606e-01
  4.120644e-01
  4.026812e-01
  3.896861e-01
  3.837505e-01
  3.898555e-01
  4.022148e-01
  4.100894e-01
  4.105040e-01
  4.123074e-01
  4.234457e-01
  4.368556e-01
  4.347081e-01
  4.109807e-01
  3.811621e-01
  3.642946e-01
  3.670826e-01
  3.826832e-01
  3.941987e-01
  3.895822e-01
  3.780447e-01
  3.799281e-01
  4.032911e-01
  4.328538e-01
  4.408981e-01
  4.192803e-01
  3.895737e-01
  3.750853e-01
  3.798164e-01
  3.924156e-01
  3.994192e-01
  3.970683e-01
  3.908007e-01
  3.858145e-01
  3.833134e-01
  3.840606e-01
  3.901975e-01
  4.020072e-01
  4.146081e-01
  4.201953e-01
  4.152520e-01
  4.036694e-01
  3.915602e-01
  3.820254e-01
  3.759220e-01
  3.755291e-01
  3.849374e-01
  4.036806e-01
  4.203800e-01
  4.202806e-01
  4.026970e-01
  3.834672e-01
  3.788357e-01
  3.922053e-01
  4.120937e-01
  4.325732e-01
  4.330600e-01
  4.174949e-01
  3.975009e-01
  3.834817e-01
  3.777969e-01
  3.775263e-01
  3.802549e-01
  3.858011e-01
  3.933011e-01
  3.993444e-01
  4.014519e-01
  4.024821e-01
  4.075350e-01
  4.156739e-01
  4.183234e-01
  4.097057e-01
  3.974524e-01
  3.971087e-01
  4.154720e-01
  4.386119e-01
  4.396178e-01
  4.098237e-01
  3.721993e-01
  3.543477e-01
  3.660741e-01
  3.979547e-01
  4.225261e-01
  4.164713e-01
  3.909667e-01
  3.776490e-01
  3.926480e-01
  4.247719e-01
  4.457869e-01
  4.403263e-01
  4.221586e-01
  4.121071e-01
  4.143776e-01
  4.186176e-01
  4.159213e-01
  4.082436e-01
  4.018108e-01
  3.975493e-01
  3.924322e-01
  3.874075e-01
  3.888567e-01
  4.008300e-01
  4.177541e-01
  4.272151e-01
  4.230916e-01
  4.128088e-01
  4.077011e-01
  4.103894e-01
  4.141413e-01
  4.131026e-01
  4.108017e-01
  4.146370e-01
  4.234495e-01
  4.262119e-01
  4.153656e-01
  3.977250e-01
  3.881932e-01
  3.956527e-01
  4.155832e-01
  4.261412e-01
  4.372113e-01
  4.318282e-01
  4.151091e-01
  3.978080e-01
  3.869065e-01
  3.829052e-01
  3.826434e-01
  3.830852e-01
  3.834409e-01
  3.848422e-01
  3.893833e-01
  3.995068e-01
  4.147219e-01
  4.268679e-01
  4.238294e-01
  4.039159e-01
  3.824775e-01
  3.788579e-01
  3.995081e-01
  4.286198e-01
  4.352069e-01
  4.071437e-01
  3.688640e-01
  3.523521e-01
  3.711448e-01
  4.167097e-01
  4.543546e-01
  4.494967e-01
  4.117857e-01
  3.816052e-01
  3.821452e-01
  4.063844e-01
  4.303088e-01
  4.370713e-01
  4.327702e-01
  4.312827e-01
  4.337205e-01
  4.305875e-01
  4.185058e-01
  4.058841e-01
  4.008424e-01
  4.012973e-01
  3.995862e-01
  3.943466e-01
  3.936886e-01
  4.048403e-01
  4.232646e-01
  4.345102e-01
  4.304569e-01
  4.201693e-01
  4.185158e-01
  4.283788e-01
  4.377662e-01
  4.342526e-01
  4.207590e-01
  4.114069e-01
  4.136998e-01
  4.204894e-01
  4.189192e-01
  4.060839e-01
  3.928155e-01
  3.918542e-01
  4.061080e-01
  4.121536e-01
  4.269114e-01
  4.296265e-01
  4.212691e-01
  4.110666e-01
  4.070923e-01
  4.098177e-01
  4.122442e-01
  4.065766e-01
  3.928604e-01
  3.796142e-01
  3.760636e-01
  3.860690e-01
  4.054326e-01
  4.206762e-01
  4.170521e-01
  3.947363e-01
  3.717210e-01
  3.674552e-01
  3.880598e-01
  4.192297e-01
  4.308648e-01
  4.080481e-01
  3.718273e-01
  3.547667e-01
  3.736806e-01
  4.229948e-01
  4.671721e-01
  4.656495e-01
  4.231892e-01
  3.816635e-01
  3.681468e-01
  3.793233e-01
  3.972864e-01
  4.083811e-01
  4.141047e-01
  4.209960e-01
  4.257755e-01
  4.190882e-01
  4.017523e-01
  3.869420e-01
  3.847196e-01
  3.919671e-01
  3.975113e-01
  3.960324e-01
  3.948403e-01
  4.037593e-01
  4.213773e-01
  4.342263e-01
  4.321854e-01
  4.218817e-01
  4.179985e-01
  4.246816e-01
  4.306052e-01
  4.229956e-01
  4.047536e-01
  3.915183e-01
  3.936618e-01
  4.063076e-01
  4.144361e-01
  4.086454e-01
  3.952644e-01
  3.882242e-01
  3.952046e-01
  4.052481e-01
  4.145108e-01
  4.151363e-01
  4.093172e-01
  4.063543e-01
  4.139958e-01
  4.307555e-01
  4.437261e-01
  4.378914e-01
  4.125986e-01
  3.840655e-01
  3.693538e-01
  3.742404e-01
  3.925901e-01
  4.089134e-01
  4.081812e-01
  3.906420e-01
  3.722459e-01
  3.695367e-01
  3.879586e-01
  4.164508e-01
  4.299618e-01
  4.131521e-01
  3.806870e-01
  3.614727e-01
  3.735146e-01
  4.145298e-01
  4.547151e-01
  4.560430e-01
  4.180449e-01
  3.761178e-01
  3.561383e-01
  3.579145e-01
  3.691731e-01
  3.803099e-01
  3.911105e-01
  4.035041e-01
  4.112566e-01
  4.047677e-01
  3.864379e-01
  3.713553e-01
  3.709640e-01
  3.826129e-01
  3.931845e-01
  3.933432e-01
  3.885006e-01
  3.909446e-01
  4.042073e-01
  4.187172e-01
  4.227822e-01
  4.165129e-01
  4.098142e-01
  4.080868e-01
  4.057837e-01
  3.954657e-01
  3.802379e-01
  3.719330e-01
  3.783264e-01
  3.951584e-01
  4.087101e-01
  4.086846e-01
  3.988837e-01
  3.915673e-01
  3.944986e-01
  4.096859e-01
  4.086958e-01
  3.988942e-01
  3.868241e-01
  3.833319e-01
  3.960257e-01
  4.227524e-01
  4.474731e-01
  4.491587e-01
  4.235957e-01
  3.896715e-01
  3.692871e-01
  3.700492e-01
  3.856297e-01
  4.015563e-01
  4.051076e-01
  3.960933e-01
  3.853989e-01
  3.840757e-01
  3.961981e-01
  4.155961e-01
  4.263211e-01
  4.161276e-01
  3.919126e-01
  3.739182e-01
  3.778476e-01
  4.040557e-01
  4.319463e-01
  4.333640e-01
  4.055757e-01
  3.732307e-01
  3.565672e-01
  3.571460e-01
  3.666633e-01
  3.780681e-01
  3.906543e-01
  4.047386e-01
  4.137090e-01
  4.083623e-01
  3.908391e-01
  3.758629e-01
  3.755730e-01
  3.881890e-01
  3.995224e-01
  3.970650e-01
  3.845359e-01
  3.766087e-01
  3.819407e-01
  3.959631e-01
  4.069609e-01
  4.080667e-01
  4.020976e-01
  3.945673e-01
  3.866252e-01
  3.772271e-01
  3.691625e-01
  3.685661e-01
  3.784601e-01
  3.942460e-01
  4.059445e-01
  4.073892e-01
  4.026266e-01
  4.004035e-01
  4.043168e-01
  4.173932e-01
  4.087498e-01
  3.896293e-01
  3.697636e-01
  3.606094e-01
  3.694004e-01
  3.951247e-01
  4.240062e-01
  4.346204e-01
  4.187215e-01
  3.912719e-01
  3.731809e-01
  3.728507e-01
  3.853535e-01
  3.995580e-01
  4.070116e-01
  4.073706e-01
  4.048826e-01
  4.028996e-01
  4.036621e-01
  4.079403e-01
  4.118201e-01
  4.090941e-01
  3.994521e-01
  3.904367e-01
  3.906736e-01
  4.018280e-01
  4.138264e-01
  4.121436e-01
  3.957512e-01
  3.788702e-01
  3.735839e-01
  3.803872e-01
  3.923928e-01
  4.035776e-01
  4.136032e-01
  4.237854e-01
  4.299497e-01
  4.248110e-01
  4.092973e-01
  3.954480e-01
  3.947188e-01
  4.063837e-01
  4.166812e-01
  4.115852e-01
  3.929470e-01
  3.761093e-01
  3.729862e-01
  3.829875e-01
  3.960909e-01
  4.021913e-01
  3.990660e-01
  3.912882e-01
  3.837691e-01
  3.789018e-01
  3.781293e-01
  3.826148e-01
  3.913611e-01
  4.001287e-01
  4.041616e-01
  4.032112e-01
  4.024487e-01
  4.066997e-01
  4.143236e-01
  4.163204e-01
  4.078633e-01
  3.894145e-01
  3.692266e-01
  3.567801e-01
  3.587581e-01
  3.761760e-01
  4.003517e-01
  4.146419e-01
  4.093890e-01
  3.928440e-01
  3.806369e-01
  3.802589e-01
  3.887381e-01
  3.993566e-01
  4.085851e-01
  4.163200e-01
  4.203278e-01
  4.159037e-01
  4.036511e-01
  3.918748e-01
  3.880536e-01
  3.924627e-01
  4.002399e-01
  4.060434e-01
  4.074552e-01
  4.054512e-01
  4.010416e-01
  3.941032e-01
  3.875897e-01
  3.876890e-01
  3.972723e-01
  4.122831e-01
  4.250424e-01
  4.309606e-01
  4.320876e-01
  4.329205e-01
  4.334313e-01
  4.290326e-01
  4.184272e-01
  4.082719e-01
  4.072399e-01
  4.164095e-01
  4.259270e-01
  4.234507e-01
  4.080158e-01
  3.910718e-01
  3.836482e-01
  3.872761e-01
  3.952538e-01
  3.997240e-01
  3.984779e-01
  3.951833e-01
  3.939912e-01
  3.957167e-01
  3.988033e-01
  4.016746e-01
  4.031064e-01
  4.019654e-01
  3.984666e-01
  3.954312e-01
  3.968111e-01
  4.039970e-01
  4.131029e-01
  4.015161e-01
  4.004964e-01
  3.948378e-01
  3.859550e-01
  3.773050e-01
  3.743306e-01
  3.812998e-01
  3.956926e-01
  4.073137e-01
  4.075893e-01
  3.991063e-01
  3.913459e-01
  3.898217e-01
  3.931942e-01
  3.986284e-01
  4.064930e-01
  4.171804e-01
  4.243947e-01
  4.180053e-01
  3.973399e-01
  3.754948e-01
  3.669130e-01
  3.764740e-01
  3.980363e-01
  4.171797e-01
  4.204734e-01
  4.071390e-01
  3.883490e-01
  3.760572e-01
  3.764230e-01
  3.894246e-01
  4.089572e-01
  4.252995e-01
  4.311795e-01
  4.263882e-01
  4.170011e-01
  4.101044e-01
  4.082925e-01
  4.085813e-01
  4.066774e-01
  4.023370e-01
  3.999310e-01
  4.032559e-01
  4.101365e-01
  4.139917e-01
  4.115733e-01
  4.061259e-01
  4.020895e-01
  4.001907e-01
  3.984451e-01
  3.960656e-01
  3.954446e-01
  3.998210e-01
  4.086368e-01
  4.161437e-01
  4.165280e-01
  4.096429e-01
  3.999425e-01
  3.918381e-01
  3.875939e-01
  3.873546e-01
  3.898889e-01
  3.939881e-01
  3.985644e-01
  3.788078e-01
  3.869570e-01
  4.003351e-01
  4.112425e-01
  4.129693e-01
  4.074078e-01
  4.032444e-01
  4.056095e-01
  4.107450e-01
  4.116746e-01
  4.069657e-01
  4.011439e-01
  3.979546e-01
  3.971049e-01
  3.977572e-01
  4.018649e-01
  4.104792e-01
  4.172216e-01
  4.111978e-01
  3.905724e-01
  3.680522e-01
  3.593456e-01
  3.715752e-01
  3.993165e-01
  4.242357e-01
  4.266033e-01
  4.049714e-01
  3.774076e-01
  3.625712e-01
  3.669087e-01
  3.848515e-01
  4.032987e-01
  4.104298e-01
  4.039411e-01
  3.900177e-01
  3.768866e-01
  3.704857e-01
  3.729699e-01
  3.819247e-01
  3.907636e-01
  3.927599e-01
  3.873050e-01
  3.808162e-01
  3.799301e-01
  3.859498e-01
  3.959840e-01
  4.057472e-01
  4.104431e-01
  4.067865e-01
  3.967463e-01
  3.879034e-01
  3.886286e-01
  4.018960e-01
  4.207557e-01
  4.306064e-01
  4.222045e-01
  4.014473e-01
  3.822711e-01
  3.741287e-01
  3.777141e-01
  3.860001e-01
  3.893777e-01
  3.849853e-01
  3.790024e-01
  3.587289e-01
  3.723131e-01
  4.015315e-01
  4.311153e-01
  4.433701e-01
  4.353149e-01
  4.203283e-01
  4.116043e-01
  4.106677e-01
  4.111442e-01
  4.084570e-01
  4.039730e-01
  4.008422e-01
  3.993778e-01
  3.983144e-01
  3.984536e-01
  4.015148e-01
  4.047835e-01
  4.010877e-01
  3.877663e-01
  3.725984e-01
  3.677015e-01
  3.801834e-01
  4.060483e-01
  4.280187e-01
  4.270652e-01
  4.030477e-01
  3.758272e-01
  3.643491e-01
  3.722802e-01
  3.885657e-01
  3.966608e-01
  3.890539e-01
  3.721188e-01
  3.562540e-01
  3.471685e-01
  3.465537e-01
  3.553688e-01
  3.727258e-01
  3.918228e-01
  4.008484e-01
  3.933266e-01
  3.763514e-01
  3.637417e-01
  3.639314e-01
  3.764605e-01
  3.940608e-01
  4.058088e-01
  4.038190e-01