# vtk DataFile Version 2.0
time_10.vtk
ASCII
DATASET STRUCTURED_GRID
DIMENSIONS    64    64     1
POINTS    4096 float
  0.000000e+00   0.000000e+00   0.000000e+00
  0.000000e+00   1.000000e+00   0.000000e+00
  0.000000e+00   2.000000e+00   0.000000e+00
  0.000000e+00   3.000000e+00   0.000000e+00
  0.000000e+00   4.000000e+00   0.000000e+00
  0.000000e+00   5.000000e+00   0.000000e+00
  0.000000e+00   6.000000e+00   0.000000e+00
  0.000000e+00   7.000000e+00   0.000000e+00
  0.000000e+00   8.000000e+00   0.000000e+00
  0.000000e+00   9.000000e+00   0.000000e+00
  0.000000e+00   1.000000e+01   0.000000e+00
  0.000000e+00   1.100000e+01   0.000000e+00
  0.000000e+00   1.200000e+01   0.000000e+00
  0.000000e+00   1.300000e+01   0.000000e+00
  0.000000e+00   1.400000e+01   0.000000e+00
  0.000000e+00   1.500000e+01   0.000000e+00
  0.000000e+00   1.600000e+01   0.000000e+00
  0.000000e+00   1.700000e+01   0.000000e+00
  0.000000e+00   1.800000e+01   0.000000e+00
  0.000000e+00   1.900000e+01   0.000000e+00
  0.000000e+00   2.000000e+01   0.000000e+00
  0.000000e+00   2.100000e+01   0.000000e+00
  0.000000e+00   2.200000e+01   0.000000e+00
  0.000000e+00   2.300000e+01   0.000000e+00
  0.000000e+00   2.400000e+01   0.000000e+00
  0.000000e+00   2.500000e+01   0.000000e+00
  0.000000e+00   2.600000e+01   0.000000e+00
  0.000000e+00   2.700000e+01   0.000000e+00
  0.000000e+00   2.800000e+01   0.000000e+00
  0.000000e+00   2.900000e+01   0.000000e+00
  0.000000e+00   3.000000e+01   0.000000e+00
  0.000000e+00   3.100000e+01   0.000000e+00
  0.000000e+00   3.200000e+01   0.000000e+00
  0.000000e+00   3.300000e+01   0.000000e+00
  0.000000e+00   3.400000e+01   0.000000e+00
  0.000000e+00   3.500000e+01   0.000000e+00
  0.000000e+00   3.600000e+01   0.000000e+00
  0.000000e+00   3.700000e+01   0.000000e+00
  0.000000e+00   3.800000e+01   0.000000e+00
  0.000000e+00   3.900000e+01   0.000000e+00
  0.000000e+00   4.000000e+01   0.000000e+00
  0.000000e+00   4.100000e+01   0.000000e+00
  0.000000e+00   4.200000e+01   0.000000e+00
  0.000000e+00   4.300000e+01   0.000000e+00
  0.000000e+00   4.400000e+01   0.000000e+00
  0.000000e+00   4.500000e+01   0.000000e+00
  0.000000e+00   4.600000e+01   0.000000e+00
  0.000000e+00   4.700000e+01   0.000000e+00
  0.000000e+00   4.800000e+01   0.000000e+00
  0.000000e+00   4.900000e+01   0.000000e+00
  0.000000e+00   5.000000e+01   0.000000e+00
  0.000000e+00   5.100000e+01   0.000000e+00
  0.000000e+00   5.200000e+01   0.000000e+00
  0.000000e+00   5.300000e+01   0.000000e+00
  0.000000e+00   5.400000e+01   0.000000e+00
  0.000000e+00   5.500000e+01   0.000000e+00
  0.000000e+00   5.600000e+01   0.000000e+00
  0.000000e+00   5.700000e+01   0.000000e+00
  0.000000e+00   5.800000e+01   0.000000e+00
  0.000000e+00   5.900000e+01   0.000000e+00
  0.000000e+00   6.000000e+01   0.000000e+00
  0.000000e+00   6.100000e+01   0.000000e+00
  0.000000e+00   6.200000e+01   0.000000e+00
  0.000000e+00   6.300000e+01   0.000000e+00
  1.000000e+00   0.000000e+00   0.000000e+00
  1.000000e+00   1.000000e+00   0.000000e+00
  1.000000e+00   2.000000e+00   0.000000e+00
  1.000000e+00   3.000000e+00   0.000000e+00
  1.000000e+00   4.000000e+00   0.000000e+00
  1.000000e+00   5.000000e+00   0.000000e+00
  1.000000e+00   6.000000e+00   0.000000e+00
  1.000000e+00   7.000000e+00   0.000000e+00
  1.000000e+00   8.000000e+00   0.000000e+00
  1.000000e+00   9.000000e+00   0.000000e+00
  1.000000e+00   1.000000e+01   0.000000e+00
  1.000000e+00   1.100000e+01   0.000000e+00
  1.000000e+00   1.200000e+01   0.000000e+00
  1.000000e+00   1.300000e+01   0.000000e+00
  1.000000e+00   1.400000e+01   0.000000e+00
  1.000000e+00   1.500000e+01   0.000000e+00
  1.000000e+00   1.600000e+01   0.000000e+00
  1.000000e+00   1.700000e+01   0.000000e+00
  1.000000e+00   1.800000e+01   0.000000e+00
  1.000000e+00   1.900000e+01   0.000000e+00
  1.000000e+00   2.000000e+01   0.000000e+00
  1.000000e+00   2.100000e+01   0.000000e+00
  1.000000e+00   2.200000e+01   0.000000e+00
  1.000000e+00   2.300000e+01   0.000000e+00
  1.000000e+00   2.400000e+01   0.000000e+00
  1.000000e+00   2.500000e+01   0.000000e+00
  1.000000e+00   2.600000e+01   0.000000e+00
  1.000000e+00   2.700000e+01   0.000000e+00
  1.000000e+00   2.800000e+01   0.000000e+00
  1.000000e+00   2.900000e+01   0.000000e+00
  1.000000e+00   3.000000e+01   0.000000e+00
  1.000000e+00   3.100000e+01   0.000000e+00
  1.000000e+00   3.200000e+01   0.000000e+00
  1.000000e+00   3.300000e+01   0.000000e+00
  1.000000e+00   3.400000e+01   0.000000e+00
  1.000000e+00   3.500000e+01   0.000000e+00
  1.000000e+00   3.600000e+01   0.000000e+00
  1.000000e+00   3.700000e+01   0.000000e+00
  1.000000e+00   3.800000e+01   0.000000e+00
  1.000000e+00   3.900000e+01   0.000000e+00
  1.000000e+00   4.000000e+01   0.000000e+00
  1.000000e+00   4.100000e+01   0.000000e+00
  1.000000e+00   4.200000e+01   0.000000e+00
  1.000000e+00   4.300000e+01   0.000000e+00
  1.000000e+00   4.400000e+01   0.000000e+00
  1.000000e+00   4.500000e+01   0.000000e+00
  1.000000e+00   4.600000e+01   0.000000e+00
  1.000000e+00   4.700000e+01   0.000000e+00
  1.000000e+00   4.800000e+01   0.000000e+00
  1.000000e+00   4.900000e+01   0.000000e+00
  1.000000e+00   5.000000e+01   0.000000e+00
  1.000000e+00   5.100000e+01   0.000000e+00
  1.000000e+00   5.200000e+01   0.000000e+00
  1.000000e+00   5.300000e+01   0.000000e+00
  1.000000e+00   5.400000e+01   0.000000e+00
  1.000000e+00   5.500000e+01   0.000000e+00
  1.000000e+00   5.600000e+01   0.000000e+00
  1.000000e+00   5.700000e+01   0.000000e+00
  1.000000e+00   5.800000e+01   0.000000e+00
  1.000000e+00   5.900000e+01   0.000000e+00
  1.000000e+00   6.000000e+01   0.000000e+00
  1.000000e+00   6.100000e+01   0.000000e+00
  1.000000e+00   6.200000e+01   0.000000e+00
  1.000000e+00   6.300000e+01   0.000000e+00
  2.000000e+00   0.000000e+00   0.000000e+00
  2.000000e+00   1.000000e+00   0.000000e+00
  2.000000e+00   2.000000e+00   0.000000e+00
  2.000000e+00   3.000000e+00   0.000000e+00
  2.000000e+00   4.000000e+00   0.000000e+00
  2.000000e+00   5.000000e+00   0.000000e+00
  2.000000e+00   6.000000e+00   0.000000e+00
  2.000000e+00   7.000000e+00   0.000000e+00
  2.000000e+00   8.000000e+00   0.000000e+00
  2.000000e+00   9.000000e+00   0.000000e+00
  2.000000e+00   1.000000e+01   0.000000e+00
  2.000000e+00   1.100000e+01   0.000000e+00
  2.000000e+00   1.200000e+01   0.000000e+00
  2.000000e+00   1.300000e+01   0.000000e+00
  2.000000e+00   1.400000e+01   0.000000e+00
  2.000000e+00   1.500000e+01   0.000000e+00
  2.000000e+00   1.600000e+01   0.000000e+00
  2.000000e+00   1.700000e+01   0.000000e+00
  2.000000e+00   1.800000e+01   0.000000e+00
  2.000000e+00   1.900000e+01   0.000000e+00
  2.000000e+00   2.000000e+01   0.000000e+00
  2.000000e+00   2.100000e+01   0.000000e+00
  2.000000e+00   2.200000e+01   0.000000e+00
  2.000000e+00   2.300000e+01   0.000000e+00
  2.000000e+00   2.400000e+01   0.000000e+00
  2.000000e+00   2.500000e+01   0.000000e+00
  2.000000e+00   2.600000e+01   0.000000e+00
  2.000000e+00   2.700000e+01   0.000000e+00
  2.000000e+00   2.800000e+01   0.000000e+00
  2.000000e+00   2.900000e+01   0.000000e+00
  2.000000e+00   3.000000e+01   0.000000e+00
  2.000000e+00   3.100000e+01   0.000000e+00
  2.000000e+00   3.200000e+01   0.000000e+00
  2.000000e+00   3.300000e+01   0.000000e+00
  2.000000e+00   3.400000e+01   0.000000e+00
  2.000000e+00   3.500000e+01   0.000000e+00
  2.000000e+00   3.600000e+01   0.000000e+00
  2.000000e+00   3.700000e+01   0.000000e+00
  2.000000e+00   3.800000e+01   0.000000e+00
  2.000000e+00   3.900000e+01   0.000000e+00
  2.000000e+00   4.000000e+01   0.000000e+00
  2.000000e+00   4.100000e+01   0.000000e+00
  2.000000e+00   4.200000e+01   0.000000e+00
  2.000000e+00   4.300000e+01   0.000000e+00
  2.000000e+00   4.400000e+01   0.000000e+00
  2.000000e+00   4.500000e+01   0.000000e+00
  2.000000e+00   4.600000e+01   0.000000e+00
  2.000000e+00   4.700000e+01   0.000000e+00
  2.000000e+00   4.800000e+01   0.000000e+00
  2.000000e+00   4.900000e+01   0.000000e+00
  2.000000e+00   5.000000e+01   0.000000e+00
  2.000000e+00   5.100000e+01   0.000000e+00
  2.000000e+00   5.200000e+01   0.000000e+00
  2.000000e+00   5.300000e+01   0.000000e+00
  2.000000e+00   5.400000e+01   0.000000e+00
  2.000000e+00   5.500000e+01   0.000000e+00
  2.000000e+00   5.600000e+01   0.000000e+00
  2.000000e+00   5.700000e+01   0.000000e+00
  2.000000e+00   5.800000e+01   0.000000e+00
  2.000000e+00   5.900000e+01   0.000000e+00
  2.000000e+00   6.000000e+01   0.000000e+00
  2.000000e+00   6.100000e+01   0.000000e+00
  2.000000e+00   6.200000e+01   0.000000e+00
  2.000000e+00   6.300000e+01   0.000000e+00
  3.000000e+00   0.000000e+00   0.000000e+00
  3.000000e+00   1.000000e+00   0.000000e+00
  3.000000e+00   2.000000e+00   0.000000e+00
  3.000000e+00   3.000000e+00   0.000000e+00
  3.000000e+00   4.000000e+00   0.000000e+00
  3.000000e+00   5.000000e+00   0.000000e+00
  3.000000e+00   6.000000e+00   0.000000e+00
  3.000000e+00   7.000000e+00   0.000000e+00
  3.000000e+00   8.000000e+00   0.000000e+00
  3.000000e+00   9.000000e+00   0.000000e+00
  3.000000e+00   1.000000e+01   0.000000e+00
  3.000000e+00   1.100000e+01   0.000000e+00
  3.000000e+00   1.200000e+01   0.000000e+00
  3.000000e+00   1.300000e+01   0.000000e+00
  3.000000e+00   1.400000e+01   0.000000e+00
  3.000000e+00   1.500000e+01   0.000000e+00
  3.000000e+00   1.600000e+01   0.000000e+00
  3.000000e+00   1.700000e+01   0.000000e+00
  3.000000e+00   1.800000e+01   0.000000e+00
  3.000000e+00   1.900000e+01   0.000000e+00
  3.000000e+00   2.000000e+01   0.000000e+00
  3.000000e+00   2.100000e+01   0.000000e+00
  3.000000e+00   2.200000e+01   0.000000e+00
  3.000000e+00   2.300000e+01   0.000000e+00
  3.000000e+00   2.400000e+01   0.000000e+00
  3.000000e+00   2.500000e+01   0.000000e+00
  3.000000e+00   2.600000e+01   0.000000e+00
[...]
POINT_DATA  4096
SCALARS CON float 1
LOOKUP_TABLE default
  1.815794e-01
  3.527148e-01
  7.327112e-01
  8.948016e-01
  9.309970e-01
  9.093472e-01
  8.340757e-01
  6.944359e-01
  4.973896e-01
  3.540691e-01
  2.879130e-01
  2.232267e-01
  1.344965e-01
  8.047844e-02
  6.245147e-02
  6.822703e-02
  8.444715e-02
  9.400658e-02
  8.654240e-02
  6.561605e-02
  4.477583e-02
  3.602761e-02
  3.833369e-02
  4.834638e-02
  6.737336e-02
  1.008123e-01
  1.569228e-01
  2.746548e-01
  5.347512e-01
  8.084354e-01
  9.194227e-01
  9.468527e-01
  9.350589e-01
  8.748092e-01
  7.167764e-01
  4.126500e-01
  1.758315e-01
  8.418991e-02
  6.332046e-02
  6.020771e-02
  5.370667e-02
  4.469480e-02
  5.010152e-02
  1.048299e-01
  2.989168e-01
  5.776715e-01
  6.898218e-01
  5.934382e-01
  3.163558e-01
  1.136616e-01
  5.571107e-02
  5.497400e-02
  1.327227e-01
  4.775184e-01
  8.631017e-01
  9.618283e-01
  9.443727e-01
  7.627218e-01
  2.657798e-01
  9.330027e-02
  7.093665e-02
  9.465467e-02
  1.307034e-01
  1.513116e-01
  3.448412e-01
  2.879733e-01
  4.247519e-01
  6.018450e-01
  6.642074e-01
  5.891516e-01
  4.009531e-01
  2.316519e-01
  1.346909e-01
  9.318485e-02
  8.094044e-02
  7.205692e-02
  5.734954e-02
  4.648715e-02
  4.441109e-02
  5.184693e-02
  6.414403e-02
  6.934826e-02
  6.080371e-02
  4.551180e-02
  3.572891e-02
  3.782873e-02
  5.264502e-02
  7.332525e-02
  8.716416e-02
  8.678888e-02
  8.245922e-02
  1.127428e-01
  2.607310e-01
  6.132958e-01
  8.620531e-01
  9.490596e-01
  9.716889e-01
  9.639099e-01
  9.169630e-01
  7.762993e-01
  4.792869e-01
  2.093687e-01
  8.951230e-02
  4.791389e-02
  3.477313e-02
  3.562992e-02
  6.421205e-02
  2.043458e-01
  6.408909e-01
  8.879979e-01
  9.425349e-01
  8.904602e-01
  6.414697e-01
  1.999752e-01
  6.444286e-02
  5.379212e-02
  1.593662e-01
  6.064137e-01
  9.134900e-01
  9.780175e-01
  9.536389e-01
  7.706079e-01
  2.550261e-01
  9.048971e-02
  9.770429e-02
  2.127020e-01
  3.652697e-01
  4.156555e-01
  6.865209e-01
  3.226845e-01
  1.813660e-01
  1.793810e-01
  1.858802e-01
  1.585725e-01
  1.082639e-01
  6.953412e-02
  5.158766e-02
  4.737831e-02
  4.751548e-02
  4.582595e-02
  4.342005e-02
  4.771147e-02
  6.761431e-02
  1.102655e-01
  1.641744e-01
  1.846565e-01
  1.519925e-01
  9.835451e-02
  7.128562e-02
  8.763463e-02
  1.530550e-01
  2.353933e-01
  2.746102e-01
  2.355160e-01
  1.419182e-01
  8.345074e-02
  1.112429e-01
  2.754745e-01
  5.938904e-01
  8.182274e-01
  9.175482e-01
  9.542375e-01
  9.587935e-01
  9.258476e-01
  8.163535e-01
  5.780294e-01
  2.922914e-01
  1.347480e-01
  6.630636e-02
  4.769237e-02
  8.414831e-02
  2.896001e-01
  8.026296e-01
  9.699395e-01
  9.981802e-01
  9.679686e-01
  7.898890e-01
  2.658030e-01
  7.580265e-02
  5.671402e-02
  1.755806e-01
  6.627880e-01
  9.262870e-01
  9.737518e-01
  9.312990e-01
  6.941926e-01
  2.045108e-01
  8.727933e-02
  1.689492e-01
  5.239817e-01
  7.966631e-01
  8.358667e-01
  8.409305e-01
  3.890884e-01
  1.243913e-01
  6.687950e-02
  5.758169e-02
  5.499680e-02
  5.778257e-02
  7.117580e-02
  9.178110e-02
  1.101757e-01
  1.144178e-01
  1.062255e-01
  1.047025e-01
  1.355668e-01
  2.251240e-01
  3.928010e-01
  5.813890e-01
  6.417168e-01
  5.425908e-01
  3.542906e-01
  2.552913e-01
  3.156516e-01
  5.370742e-01
  7.329670e-01
  7.904515e-01
  7.054852e-01
  4.108449e-01
  1.390241e-01
  6.965602e-02
  9.504563e-02
  2.054139e-01
  4.139245e-01
  6.667082e-01
  8.240172e-01
  9.105794e-01
  9.452712e-01
  9.366761e-01
  8.737629e-01
  7.239199e-01
  4.590025e-01
  2.194627e-01
  1.012869e-01
  1.068161e-01
  3.178638e-01
  8.238614e-01
  9.761917e-01
  9.999000e-01
  9.700907e-01
  7.936402e-01
  2.670520e-01
  7.544829e-02
  5.555489e-02
  1.707241e-01
  6.478825e-01
  9.193773e-01
  9.627856e-01
  8.924707e-01
  5.564299e-01
  1.468652e-01
  8.242846e-02
  2.327752e-01
  7.368798e-01
  9.428985e-01
  9.622097e-01
  8.666266e-01
  4.033927e-01
  1.146425e-01
  4.889742e-02
  4.216854e-02
  6.371278e-02
  1.291469e-01
  2.355248e-01
  3.458549e-01
  4.270574e-01
  4.446196e-01
  4.155062e-01
  4.110954e-01
  5.029564e-01
  6.776866e-01
  8.218868e-01
  9.014088e-01
  9.188648e-01
  8.760174e-01
  7.709612e-01
  6.742412e-01
  7.221170e-01
  8.543762e-01
  9.387917e-01
  9.638261e-01
  9.233555e-01
  7.064708e-01
  2.328389e-01
  7.364867e-02
  4.621330e-02
  6.175479e-02
  1.125659e-01
  2.160805e-01
  4.075792e-01
  6.779949e-01
  8.603535e-01
  9.401439e-01
  9.566446e-01
  9.296961e-01
  8.350153e-01
  5.992418e-01
  2.559399e-01
  1.407990e-01
  2.750798e-01
  7.254466e-01
  9.229176e-01
  9.589112e-01
  9.051293e-01
  6.573039e-01
  2.018237e-01
  6.159858e-02
  4.839922e-02
  1.429074e-01
  5.568557e-01
  8.928255e-01
  9.493858e-01
  8.558318e-01
  4.345008e-01
  1.075743e-01
  7.229873e-02
  2.370248e-01
  7.633159e-01
  9.609465e-01
  9.801514e-01
  7.837818e-01
  3.235734e-01
  9.853720e-02
  5.050521e-02
  6.439565e-02
  1.633114e-01
  4.271895e-01
  7.106809e-01
  8.347869e-01
  8.746715e-01
  8.734663e-01
  8.482827e-01
  8.245888e-01
  8.375141e-01
  8.889362e-01
  9.383082e-01
  9.653383e-01
  9.647964e-01
  9.262584e-01
  8.317077e-01
  7.283819e-01
  7.651372e-01
  8.864421e-01
  9.617394e-01
  9.875684e-01
  9.623728e-01
  7.865823e-01
  2.742295e-01
  8.003649e-02
  3.750766e-02
  3.075574e-02
  3.668838e-02
  5.749973e-02
  1.138899e-01
  2.639926e-01
  5.764059e-01
  8.436491e-01
  9.495371e-01
  9.762608e-01
  9.574386e-01
  8.431791e-01
  4.735225e-01
  1.792693e-01
  1.783445e-01
  4.228651e-01
  6.895068e-01
  7.595013e-01
  6.476076e-01
  3.366528e-01
  1.080370e-01
  4.297392e-02
  3.835617e-02
  1.031581e-01
  4.079236e-01
  8.437247e-01
  9.364757e-01
  8.462112e-01
  4.151148e-01
  9.969518e-02
  5.882769e-02
  1.790768e-01
  6.218724e-01
  8.898746e-01
  9.274745e-01
  4.852890e-01
  1.841024e-01
  7.369860e-02
  5.856810e-02
  1.193048e-01
  3.866781e-01
  7.805921e-01
  9.339726e-01
  9.745786e-01
  9.796056e-01
  9.662481e-01
  9.328731e-01
  8.811541e-01
  8.409208e-01
  8.508209e-01
  8.909692e-01
  9.167700e-01
  8.986940e-01
  8.016836e-01
  5.898683e-01
  3.951029e-01
  4.462908e-01
  6.915464e-01
  8.682496e-01
  9.330066e-01
  9.017873e-01
  6.831899e-01
  2.267567e-01
  7.149165e-02
  3.608827e-02
  2.791167e-02
  2.666905e-02
  2.928244e-02
  4.058820e-02
  8.423669e-02
  2.326652e-01
  5.765045e-01
  8.518682e-01
  9.512535e-01
  9.657319e-01
  8.879194e-01
  5.510614e-01
  1.839031e-01
  1.023981e-01
  1.440020e-01
  2.229002e-01
  2.539256e-01
  2.072500e-01
  1.155396e-01
  5.511980e-02
  3.274077e-02
  3.109305e-02
  7.062660e-02
  2.771908e-01
  7.731885e-01
  9.239221e-01
  8.689236e-01
  5.121799e-01
  1.279962e-01
  4.948530e-02
  9.455554e-02
  3.011795e-01
  5.990287e-01
  6.756316e-01
  1.602101e-01
  8.539212e-02
  5.629966e-02
  6.887285e-02
  1.830051e-01
  6.076470e-01
  9.125029e-01
  9.878303e-01
  9.988808e-01
  9.880166e-01
  9.501207e-01
  8.538570e-01
  6.832121e-01
  5.223864e-01
  4.950492e-01
  5.755203e-01
  6.378498e-01
  5.867146e-01
  3.978316e-01
  2.063622e-01
  1.165542e-01
  1.340115e-01
  2.698632e-01
  5.109977e-01
  6.669299e-01
  6.178485e-01
  3.563253e-01
  1.252904e-01
  5.283679e-02
  3.543238e-02
  3.378835e-02
  3.870947e-02
  4.525293e-02
  4.789442e-02
  5.283266e-02
  9.248611e-02
  2.432205e-01
  5.570775e-01
  7.847140e-01
  8.436192e-01
  7.471575e-01
  3.977343e-01
  1.364347e-01
  6.755799e-02
  6.244776e-02
  7.579146e-02
  8.612585e-02
  8.344719e-02
  6.885457e-02
  5.228113e-02
  3.833905e-02
  3.160897e-02
  5.192450e-02
  1.912326e-01
  6.688917e-01
  9.055016e-01
  9.047371e-01
  6.712299e-01
  2.031675e-01
  5.719181e-02
  4.788221e-02
  9.854459e-02
  1.824672e-01
  2.145015e-01
  6.920090e-02
  5.622774e-02
  5.157285e-02
  7.228906e-02
  1.957429e-01
  6.330304e-01
  9.163815e-01
  9.815120e-01
  9.822572e-01
  9.446109e-01
  8.249353e-01
  5.446088e-01
  2.498667e-01
  1.323421e-01
  1.152616e-01
  1.436674e-01
  1.758042e-01
  1.765796e-01
  1.401276e-01
  9.778656e-02
  7.102911e-02
  6.528597e-02
  9.000712e-02
  1.494202e-01
  1.993715e-01
  1.860364e-01
  1.168955e-01
  6.108752e-02
  4.094808e-02
  4.001161e-02
  5.506547e-02
  9.084543e-02
  1.356045e-01
  1.503286e-01
  1.239238e-01
  9.424862e-02
  1.068338e-01
  1.906984e-01
  3.109120e-01
  3.768176e-01
  3.125573e-01
  1.663465e-01
  7.810260e-02
  4.905394e-02
  4.401987e-02
  5.248581e-02
  7.639872e-02
  1.117505e-01
  1.355450e-01
  1.254405e-01
  8.967804e-02
  5.567582e-02
  4.952606e-02
  1.355027e-01
  5.222640e-01
  8.752540e-01
  9.320074e-01
  8.042586e-01
  3.543373e-01
  9.201214e-02
  3.832660e-02
  4.247375e-02
  6.226720e-02
  7.471098e-02
  7.751271e-02
  7.366178e-02
  6.302852e-02
  6.881192e-02
  1.441765e-01
  4.349260e-01
  7.708800e-01
  8.783562e-01
  8.689945e-01
  7.579846e-01
  4.817603e-01
  1.967771e-01
  7.085293e-02
  3.376590e-02
  3.042539e-02
  4.203754e-02
  6.331080e-02
  1.002270e-01
  1.602832e-01
  2.045402e-01
  1.946298e-01
  1.405639e-01
  8.670163e-02
  6.790398e-02
  6.814091e-02
  6.464570e-02
  5.354357e-02
  4.530425e-02
  4.740694e-02
  6.848938e-02
  1.355515e-01
  2.881542e-01
  4.765041e-01
  5.453924e-01
  4.488139e-01
  2.812870e-01
  1.555986e-01
  1.033581e-01
  1.039810e-01
  1.142733e-01
  1.011247e-01
  7.029114e-02
  4.845546e-02
  3.973191e-02
  4.367149e-02
  7.563375e-02
  1.781543e-01
  3.424429e-01
  4.635756e-01
  4.494488e-01
  3.199317e-01
  1.714385e-01
  8.245994e-02
  1.107886e-01
  3.887186e-01
  8.390403e-01
  9.476117e-01
  8.956405e-01
  5.870495e-01
  1.631236e-01
  5.035828e-02
  3.694097e-02
  4.930845e-02
  6.740470e-02
  2.317582e-01
  2.073439e-01
  1.324377e-01
  7.974936e-02
  8.725315e-02
  1.764485e-01
  3.427013e-01
  4.612627e-01
  4.375308e-01
  3.005810e-01
  1.544070e-01
  6.535669e-02
  3.020500e-02
  2.021554e-02
  2.125206e-02
  3.223766e-02
  7.027871e-02
  1.993460e-01
  4.690177e-01
  6.658636e-01
  6.682770e-01
  4.840983e-01
  2.227692e-01
  8.817715e-02
  5.323126e-02
  5.123202e-02
  6.204513e-02
  8.014978e-02
  1.127345e-01
  1.898778e-01
  3.803280e-01
  6.792444e-01
  8.456886e-01
  8.902121e-01
  8.544274e-01
  7.231132e-01
  4.471779e-01
  1.945956e-01
  8.540593e-02
  5.594088e-02
  4.741518e-02
  4.066818e-02
  3.553913e-02
  3.574517e-02
  5.594451e-02
  1.577648e-01
  4.834380e-01
  7.827359e-01
  8.821169e-01
  8.809627e-01
  7.895038e-01
  5.254098e-01
  1.983319e-01
  1.228887e-01
  3.071512e-01
  7.891247e-01
  9.463586e-01
  9.399013e-01
  7.488876e-01
  2.571740e-01
  8.711115e-02
  7.620204e-02
  1.236935e-01
  1.927616e-01
  7.398566e-01
  6.610302e-01
  3.867126e-01
  1.403689e-01
  7.192478e-02
  7.612412e-02
  1.109485e-01
  1.423963e-01
  1.392430e-01
  1.038627e-01
  6.465028e-02
  3.922790e-02
  2.765448e-02
  2.388789e-02
  2.603020e-02
  4.317391e-02
  1.261842e-01
  4.422816e-01
  8.073513e-01
  9.264444e-01
  9.310689e-01
  8.313042e-01
  5.065477e-01
  1.658864e-01
  8.132763e-02
  1.015338e-01
  1.795212e-01
  2.758345e-01
  3.900044e-01
  5.418492e-01
  7.050787e-01
  8.391089e-01
  9.149164e-01
  9.519791e-01
  9.572920e-01
  9.220583e-01
  7.947192e-01
  4.827768e-01
  1.729484e-01
  6.244263e-02
  3.672950e-02
  3.085339e-02
  2.941761e-02
  3.570995e-02
  8.101281e-02
  2.918937e-01
  7.548223e-01
  9.406340e-01
  9.849148e-01
  9.870995e-01
  9.536915e-01
  8.036143e-01
  3.723113e-01
  1.543267e-01
  2.383155e-01
  6.611683e-01
  8.959992e-01
  9.278630e-01
  7.900190e-01
  3.544048e-01
  1.865094e-01
  2.566875e-01
  4.564250e-01
  6.647271e-01
  9.541940e-01
  9.120464e-01
  6.976761e-01
  2.361330e-01
  7.975512e-02
  5.239076e-02
  6.114903e-02
  8.402518e-02
  1.023842e-01
  9.723756e-02
  7.202342e-02
  4.743391e-02
  3.498009e-02
  3.017168e-02
  3.218554e-02
  5.736179e-02
  1.918366e-01
  6.562750e-01
  9.187785e-01
  9.806689e-01
  9.821062e-01
  9.230554e-01
  6.720521e-01
  2.429877e-01
  1.523802e-01
  2.959534e-01
  5.838314e-01
  7.621360e-01
  8.221885e-01
  8.204716e-01
  7.639202e-01
  7.385968e-01
  8.011947e-01
  9.014701e-01
  9.588975e-01
  9.698432e-01
  9.341964e-01
  7.797777e-01
  3.829156e-01
  1.097413e-01
  4.163979e-02
  2.830689e-02
  2.742989e-02
  4.094775e-02
  1.223796e-01
  4.633738e-01
  8.662563e-01
  9.757134e-01
  9.985431e-01
  9.999000e-01
  9.827311e-01
  8.764555e-01
  4.662650e-01
  1.625102e-01
  1.509959e-01
  3.749242e-01
  6.810117e-01
  7.732241e-01
  6.617123e-01
  3.875364e-01
  3.942601e-01
  6.624513e-01
  8.483317e-01
  9.317872e-01
  9.989725e-01
  9.691979e-01
  8.007373e-01
  2.821667e-01
  8.445417e-02
  5.255241e-02
  8.069162e-02
  1.642729e-01
  2.538708e-01
  2.625074e-01
  1.784466e-01
  8.581974e-02
  4.850121e-02
  3.700050e-02
  3.843152e-02
  7.097835e-02
  2.381965e-01
  7.276976e-01
  9.237798e-01
  9.599172e-01
  9.472594e-01
  8.656811e-01
  5.923911e-01
  2.442633e-01
  2.471790e-01
  6.021061e-01
  8.689783e-01
  9.451699e-01
  9.367890e-01
  8.279693e-01
  5.190144e-01
  3.147794e-01
  3.905946e-01
  6.998128e-01
  9.131789e-01
  9.740486e-01
  9.766959e-01
  9.139137e-01
  6.468658e-01
  1.895195e-01
  5.591517e-02
  3.039424e-02
  3.044191e-02
  5.600802e-02
  1.862314e-01
  6.275891e-01
  9.061972e-01
  9.700211e-01
  9.797083e-01
  9.754631e-01
  9.468022e-01
  8.100144e-01
  3.858636e-01
  1.294526e-01
  8.584267e-02
  1.396662e-01
  2.476992e-01
  3.111904e-01
  2.870664e-01
  2.721752e-01
  5.093232e-01
  8.463594e-01
  9.607561e-01
  9.932827e-01
  9.993444e-01
  9.586184e-01
  7.621660e-01
  2.507690e-01
  7.796884e-02
  7.282336e-02
  1.920893e-01
  4.922224e-01
  7.257828e-01
  7.386849e-01
  5.151737e-01
  1.831240e-01
  7.127134e-02
  4.580757e-02
  5.034570e-02
  1.011538e-01
  3.001961e-01
  7.173568e-01
  8.399596e-01
  8.200666e-01
  7.471513e-01
  5.717931e-01
  2.957867e-01
  1.588874e-01
  2.639547e-01
  7.123280e-01
  9.344786e-01
  9.757787e-01
  9.300352e-01
  7.071021e-01
  2.535193e-01
  9.052004e-02
  1.219295e-01
  3.913504e-01
  8.300605e-01
  9.651234e-01
  9.901822e-01
  9.616533e-01
  7.839819e-01
  2.602923e-01
  7.175546e-02
  3.649609e-02
  4.289880e-02
  9.450258e-02
  2.892630e-01
  7.174765e-01
  8.841738e-01
  8.983813e-01
  8.712801e-01
  8.330703e-01
  7.517429e-01
  5.250633e-01
  2.079030e-01
  8.327431e-02
  5.765329e-02
  6.654585e-02
  8.974084e-02
  1.064440e-01
  1.135855e-01
  1.708132e-01
  4.591993e-01
  8.590510e-01
  9.752460e-01
  9.999000e-01
  9.591808e-01
  8.689932e-01
  5.640120e-01
  1.665480e-01
  6.961918e-02
  1.304073e-01
  4.317597e-01
  8.074520e-01
  9.366128e-01
  9.334513e-01
  7.615616e-01
  2.799757e-01
  9.235833e-02
  5.788903e-02
  8.366168e-02
  2.044499e-01
  4.676725e-01
  6.856025e-01
  5.779732e-01
  3.719788e-01
  2.467900e-01
  1.647346e-01
  9.905786e-02
  8.763565e-02
  1.974318e-01
  5.988457e-01
  8.734332e-01
  9.233512e-01
  8.233492e-01
  4.664157e-01
  1.262060e-01
  3.578292e-02
  5.124099e-02
  2.253708e-01
  7.325047e-01
  9.477124e-01
  9.925590e-01
  9.736687e-01
  8.186875e-01
  2.905295e-01
  8.199447e-02
  4.869306e-02
  8.003845e-02
  1.990525e-01
  4.663177e-01
  7.147272e-01
  7.138207e-01
  5.917851e-01
  4.383323e-01
  3.272952e-01
  2.477805e-01
  1.624640e-01
  8.729691e-02
  5.881392e-02
  5.325152e-02
  5.418807e-02
  5.661626e-02
  5.872463e-02
  6.449533e-02
  1.074266e-01
  3.113765e-01
  7.499892e-01
  9.300950e-01
  9.709610e-01
  7.674101e-01
  5.706365e-01
  2.502190e-01
  8.600717e-02
  8.078309e-02
  2.528059e-01
  6.994936e-01
  9.277903e-01
  9.823843e-01
  9.622003e-01
  7.932752e-01
  2.880139e-01
  9.417634e-02
  7.407607e-02
  1.642785e-01
  4.720519e-01
  7.387102e-01
  7.196462e-01
  3.462505e-01
  1.281210e-01
  6.698088e-02
  4.963447e-02
  4.364398e-02
  5.320573e-02
  1.089246e-01
  3.022051e-01
  5.849229e-01
  6.638704e-01
  4.939643e-01
  2.053602e-01
  6.260209e-02
  2.477345e-02
  3.616611e-02
  1.471799e-01
  5.676310e-01
  8.914835e-01
  9.705800e-01
  9.485188e-01
  7.631798e-01
  2.597754e-01
  8.306611e-02
  7.667687e-02
  1.857552e-01
  4.481626e-01
  6.620271e-01
  5.898465e-01
  3.324735e-01
  1.740600e-01
  1.047711e-01
  7.688229e-02
  6.675388e-02
  6.428042e-02
  7.061820e-02
  8.354615e-02
  8.944438e-02
  7.992333e-02
  6.288745e-02
  5.292942e-02
  5.121694e-02
  6.908584e-02
  1.609046e-01
  4.417466e-01
  7.189322e-01
  8.064067e-01
  2.569842e-01
  1.704378e-01
  8.476824e-02
  6.234314e-02
  1.501188e-01
  4.856912e-01
  8.545157e-01
  9.660467e-01
  9.799084e-01
  9.224562e-01
  6.696380e-01
  2.108155e-01
  7.589507e-02
  8.916752e-02
  2.719077e-01
  7.323601e-01
  8.877967e-01
  7.756806e-01
  2.835381e-01
  7.565115e-02
  3.343121e-02
  3.012202e-02
  3.591208e-02
  4.614252e-02
  6.656747e-02
  1.159648e-01
  1.892253e-01
  2.111401e-01
  1.546255e-01
  7.767948e-02
  3.733336e-02
  2.436831e-02
  3.140919e-02
  8.775033e-02
  3.133430e-01
  6.950734e-01
  8.404492e-01
  8.001186e-01
  5.345945e-01
  1.734438e-01
  8.115439e-02
  1.443156e-01
  4.223915e-01
  7.395623e-01
  7.637328e-01
  4.270537e-01
  1.423624e-01
  5.259825e-02
  2.959731e-02
  2.971412e-02
  4.838834e-02
  9.696734e-02
  1.819357e-01
  2.598799e-01
  2.786536e-01
  2.141803e-01
  1.139497e-01
  6.587909e-02
  5.070863e-02
  5.157790e-02
  7.544807e-02
  1.472374e-01
  2.421871e-01
  2.874700e-01
  7.574055e-02
  5.786943e-02
  5.145704e-02
  1.029652e-01
  3.392596e-01
  7.541151e-01
  9.365280e-01
  9.747093e-01
  9.457035e-01
  7.895947e-01
  3.850493e-01
  1.094119e-01
  5.066558e-02
  9.404894e-02
  3.450816e-01
  8.287569e-01
  9.334434e-01
  8.027122e-01
  2.774214e-01
  7.092723e-02
  3.361948e-02
  3.879320e-02
  5.914763e-02
  7.983078e-02
  8.943814e-02
  8.832424e-02
  8.432324e-02
  7.694870e-02
  6.098572e-02
  4.349171e-02
  3.335906e-02
  2.992485e-02
  3.323099e-02
  5.367854e-02
  1.248902e-01
  2.730941e-01
  3.826250e-01
  3.437906e-01
  1.987564e-01
  9.028386e-02
  9.734800e-02
  2.840984e-01
  6.981011e-01
  8.714466e-01
  7.700905e-01
  2.994508e-01
  7.861219e-02
  2.803970e-02
  2.423274e-02
  4.913945e-02
  1.318367e-01
  3.263199e-01
  6.091940e-01
  7.677722e-01
  7.799143e-01
  6.164131e-01
  2.611374e-01
  1.001006e-01
  5.810355e-02
  4.990099e-02
  5.360192e-02
  6.607511e-02
  8.097506e-02
  8.571960e-02
  4.194608e-02
  4.158102e-02
  7.034946e-02
  2.193588e-01
  6.484885e-01
  9.066192e-01
  9.719502e-01
  9.603395e-01
  8.498979e-01
  5.060448e-01
  1.587846e-01
  4.539430e-02
  3.153371e-02
  9.072659e-02
  3.769390e-01
  8.492007e-01
  9.363164e-01
  7.910858e-01
  2.628867e-01
  7.178149e-02
  4.758768e-02
  8.769611e-02
  1.796035e-01
  2.598231e-01
  2.700314e-01
  2.026521e-01
  1.098904e-01
  6.157579e-02
  4.561401e-02
  4.300525e-02
  4.892411e-02
  5.709864e-02
  6.088598e-02
  6.242607e-02
  7.215090e-02
  9.876647e-02
  1.202142e-01
  1.084096e-01
  7.612707e-02
  6.912829e-02
  1.641994e-01
  5.220749e-01
  8.511256e-01
  9.072283e-01
  7.252904e-01
  2.211578e-01
  5.621658e-02
  2.972423e-02
  5.136154e-02
  1.529588e-01
  4.169231e-01
  7.436328e-01
  9.033638e-01
  9.575368e-01
  9.516822e-01
  8.321823e-01
  4.069398e-01
  1.355304e-01
  6.987004e-02
  6.358523e-02
  7.114599e-02
  7.271435e-02
  6.350914e-02
  5.081599e-02
  4.793389e-02
  4.967736e-02
  1.109262e-01
  3.780342e-01
  8.314663e-01
  9.660007e-01
  9.760490e-01
  9.049421e-01
  6.383995e-01
  2.226864e-01
  5.639483e-02
  1.705982e-02
  2.144150e-02
  9.175341e-02
  4.100722e-01
  8.502161e-01
  9.167417e-01
  7.279169e-01
  2.229164e-01
  7.201114e-02
  8.807852e-02
  2.605404e-01
  5.863821e-01
  7.661052e-01
  7.731778e-01
  6.092877e-01
  2.801777e-01
  9.976257e-02
  5.939201e-02
  7.474784e-02
  1.315861e-01
  1.930746e-01
  2.116633e-01
  1.822290e-01
  1.263579e-01
  8.339436e-02
  6.337602e-02
  5.349659e-02
  5.176147e-02
  9.321672e-02
  3.082049e-01
  7.514679e-01
  9.239432e-01
  9.062112e-01
  6.448409e-01
  1.721641e-01
  5.043253e-02
  4.786423e-02
  1.281802e-01