# vtk DataFile Version 2.0
time_10.vtk
ASCII
DATASET STRUCTURED_GRID
DIMENSIONS    64    64     1
POINTS    4096 float
  0.000000e+00   0.000000e+00   0.000000e+00
  0.000000e+00   1.000000e+00   0.000000e+00
  0.000000e+00   2.000000e+00   0.000000e+00
  0.000000e+00   3.000000e+00   0.000000e+00
  0.000000e+00   4.000000e+00   0.000000e+00
  0.000000e+00   5.000000e+00   0.000000e+00
  0.000000e+00   6.000000e+00   0.000000e+00
  0.000000e+00   7.000000e+00   0.000000e+00
  0.000000e+00   8.000000e+00   0.000000e+00
  0.000000e+00   9.000000e+00   0.000000e+00
  0.000000e+00   1.000000e+01   0.000000e+00
  0.000000e+00   1.100000e+01   0.000000e+00
  0.000000e+00   1.200000e+01   0.000000e+00
  0.000000e+00   1.300000e+01   0.000000e+00
  0.000000e+00   1.400000e+01   0.000000e+00
  0.000000e+00   1.500000e+01   0.000000e+00
  0.000000e+00   1.600000e+01   0.000000e+00
  0.000000e+00   1.700000e+01   0.000000e+00
  0.000000e+00   1.800000e+01   0.000000e+00
  0.000000e+00   1.900000e+01   0.000000e+00
  0.000000e+00   2.000000e+01   0.000000e+00
  0.000000e+00   2.100000e+01   0.000000e+00
  0.000000e+00   2.200000e+01   0.000000e+00
  0.000000e+00   2.300000e+01   0.000000e+00
  0.000000e+00   2.400000e+01   0.000000e+00
  0.000000e+00   2.500000e+01   0.000000e+00
  0.000000e+00   2.600000e+01   0.000000e+00
  0.000000e+00   2.700000e+01   0.000000e+00
  0.000000e+00   2.800000e+01   0.000000e+00
  0.000000e+00   2.900000e+01   0.000000e+00
  0.000000e+00   3.000000e+01   0.000000e+00
  0.000000e+00   3.100000e+01   0.000000e+00
  0.000000e+00   3.200000e+01   0.000000e+00
  0.000000e+00   3.300000e+01   0.000000e+00
  0.000000e+00   3.400000e+01   0.000000e+00
  0.000000e+00   3.500000e+01   0.000000e+00
  0.000000e+00   3.600000e+01   0.000000e+00
  0.000000e+00   3.700000e+01   0.000000e+00
  0.000000e+00   3.800000e+01   0.000000e+00
  0.000000e+00   3.900000e+01   0.000000e+00
  0.000000e+00   4.000000e+01   0.000000e+00
  0.000000e+00   4.100000e+01   0.000000e+00
  0.000000e+00   4.200000e+01   0.000000e+00
  0.000000e+00   4.300000e+01   0.000000e+00
  0.000000e+00   4.400000e+01   0.000000e+00
  0.000000e+00   4.500000e+01   0.000000e+00
  0.000000e+00   4.600000e+01   0.000000e+00
  0.000000e+00   4.700000e+01   0.000000e+00
  0.000000e+00   4.800000e+01   0.000000e+00
  0.000000e+00   4.900000e+01   0.000000e+00
  0.000000e+00   5.000000e+01   0.000000e+00
  0.000000e+00   5.100000e+01   0.000000e+00
  0.000000e+00   5.200000e+01   0.000000e+00
  0.000000e+00   5.300000e+01   0.000000e+00
  0.000000e+00   5.400000e+01   0.000000e+00
  0.000000e+00   5.500000e+01   0.000000e+00
  0.000000e+00   5.600000e+01   0.000000e+00
  0.000000e+00   5.700000e+01   0.000000e+00
  0.000000e+00   5.800000e+01   0.000000e+00
  0.000000e+00   5.900000e+01   0.000000e+00
  0.000000e+00   6.000000e+01   0.000000e+00
  0.000000e+00   6.100000e+01   0.000000e+00
  0.000000e+00   6.200000e+01   0.000000e+00
  0.000000e+00   6.300000e+01   0.000000e+00
  1.000000e+00   0.000000e+00   0.000000e+00
  1.000000e+00   1.000000e+00   0.000000e+00
  1.000000e+00   2.000000e+00   0.000000e+00
  1.000000e+00   3.000000e+00   0.000000e+00
  1.000000e+00   4.000000e+00   0.000000e+00
  1.000000e+00   5.000000e+00   0.000000e+00
  1.000000e+00   6.000000e+00   0.000000e+00
  1.000000e+00   7.000000e+00   0.000000e+00
  1.000000e+00   8.000000e+00   0.000000e+00
  1.000000e+00   9.000000e+00   0.000000e+00
  1.000000e+00   1.000000e+01   0.000000e+00
  1.000000e+00   1.100000e+01   0.000000e+00
  1.000000e+00   1.200000e+01   0.000000e+00
  1.000000e+00   1.300000e+01   0.000000e+00
  1.000000e+00   1.400000e+01   0.000000e+00
  1.000000e+00   1.500000e+01   0.000000e+00
  1.000000e+00   1.600000e+01   0.000000e+00
  1.000000e+00   1.700000e+01   0.000000e+00
  1.000000e+00   1.800000e+01   0.000000e+00
  1.000000e+00   1.900000e+01   0.000000e+00
  1.000000e+00   2.000000e+01   0.000000e+00
  1.000000e+00   2.100000e+01   0.000000e+00
  1.000000e+00   2.200000e+01   0.000000e+00
  1.000000e+00   2.300000e+01   0.000000e+00
  1.000000e+00   2.400000e+01   0.000000e+00
  1.000000e+00   2.500000e+01   0.000000e+00
  1.000000e+00   2.600000e+01   0.000000e+00
  1.000000e+00   2.700000e+01   0.000000e+00
  1.000000e+00   2.800000e+01   0.000000e+00
  1.000000e+00   2.900000e+01   0.000000e+00
  1.000000e+00   3.000000e+01   0.000000e+00
  1.000000e+00   3.100000e+01   0.000000e+00
  1.000000e+00   3.200000e+01   0.000000e+00
  1.000000e+00   3.300000e+01   0.000000e+00
  1.000000e+00   3.400000e+01   0.000000e+00
  1.000000e+00   3.500000e+01   0.000000e+00
  1.000000e+00   3.600000e+01   0.000000e+00
  1.000000e+00   3.700000e+01   0.000000e+00
  1.000000e+00   3.800000e+01   0.000000e+00
  1.000000e+00   3.900000e+01   0.000000e+00
  1.000000e+00   4.000000e+01   0.000000e+00
  1.000000e+00   4.100000e+01   0.000000e+00
  1.000000e+00   4.200000e+01   0.000000e+00
  1.000000e+00   4.300000e+01   0.000000e+00
  1.000000e+00   4.400000e+01   0.000000e+00
  1.000000e+00   4.500000e+01   0.000000e+00
  1.000000e+00   4.600000e+01   0.000000e+00
  1.000000e+00   4.700000e+01   0.000000e+00
  1.000000e+00   4.800000e+01   0.000000e+00
  1.000000e+00   4.900000e+01   0.000000e+00
  1.000000e+00   5.000000e+01   0.000000e+00
  1.000000e+00   5.100000e+01   0.000000e+00
  1.000000e+00   5.200000e+01   0.000000e+00
  1.000000e+00   5.300000e+01   0.000000e+00
  1.000000e+00   5.400000e+01   0.000000e+00
  1.000000e+00   5.500000e+01   0.000000e+00
  1.000000e+00   5.600000e+01   0.000000e+00
  1.000000e+00   5.700000e+01   0.000000e+00
  1.000000e+00   5.800000e+01   0.000000e+00
  1.000000e+00   5.900000e+01   0.000000e+00
  1.000000e+00   6.000000e+01   0.000000e+00
  1.000000e+00   6.100000e+01   0.000000e+00
  1.000000e+00   6.200000e+01   0.000000e+00
  1.000000e+00   6.300000e+01   0.000000e+00
  2.000000e+00   0.000000e+00   0.000000e+00
  2.000000e+00   1.000000e+00   0.000000e+00
  2.000000e+00   2.000000e+00   0.000000e+00
  2.000000e+00   3.000000e+00   0.000000e+00
  2.000000e+00   4.000000e+00   0.000000e+00
  2.000000e+00   5.000000e+00   0.000000e+00
  2.000000e+00   6.000000e+00   0.000000e+00
  2.000000e+00   7.000000e+00   0.000000e+00
  2.000000e+00   8.000000e+00   0.000000e+00
  2.000000e+00   9.000000e+00   0.000000e+00
  2.000000e+00   1.000000e+01   0.000000e+00
  2.000000e+00   1.100000e+01   0.000000e+00
  2.000000e+00   1.200000e+01   0.000000e+00
  2.000000e+00   1.300000e+01   0.000000e+00
  2.000000e+00   1.400000e+01   0.000000e+00
  2.000000e+00   1.500000e+01   0.000000e+00
  2.000000e+00   1.600000e+01   0.000000e+00
  2.000000e+00   1.700000e+01   0.000000e+00
  2.000000e+00   1.800000e+01   0.000000e+00
  2.000000e+00   1.900000e+01   0.000000e+00
  2.000000e+00   2.000000e+01   0.000000e+00
  2.000000e+00   2.100000e+01   0.000000e+00
  2.000000e+00   2.200000e+01   0.000000e+00
  2.000000e+00   2.300000e+01   0.000000e+00
  2.000000e+00   2.400000e+01   0.000000e+00
  2.000000e+00   2.500000e+01   0.000000e+00
  2.000000e+00   2.600000e+01   0.000000e+00
  2.000000e+00   2.700000e+01   0.000000e+00
  2.000000e+00   2.800000e+01   0.000000e+00
  2.000000e+00   2.900000e+01   0.000000e+00
  2.000000e+00   3.000000e+01   0.000000e+00
  2.000000e+00   3.100000e+01   0.000000e+00
  2.000000e+00   3.200000e+01   0.000000e+00
  2.000000e+00   3.300000e+01   0.000000e+00
  2.000000e+00   3.400000e+01   0.000000e+00
  2.000000e+00   3.500000e+01   0.000000e+00
  2.000000e+00   3.600000e+01   0.000000e+00
  2.000000e+00   3.700000e+01   0.000000e+00
  2.000000e+00   3.800000e+01   0.000000e+00
  2.000000e+00   3.900000e+01   0.000000e+00
  2.000000e+00   4.000000e+01   0.000000e+00
  2.000000e+00   4.100000e+01   0.000000e+00
  2.000000e+00   4.200000e+01   0.000000e+00
  2.000000e+00   4.300000e+01   0.000000e+00
  2.000000e+00   4.400000e+01   0.000000e+00
  2.000000e+00   4.500000e+01   0.000000e+00
  2.000000e+00   4.600000e+01   0.000000e+00
  2.000000e+00   4.700000e+01   0.000000e+00
  2.000000e+00   4.800000e+01   0.000000e+00
  2.000000e+00   4.900000e+01   0.000000e+00
  2.000000e+00   5.000000e+01   0.000000e+00
  2.000000e+00   5.100000e+01   0.000000e+00
  2.000000e+00   5.200000e+01   0.000000e+00
  2.000000e+00   5.300000e+01   0.000000e+00
  2.000000e+00   5.400000e+01   0.000000e+00
  2.000000e+00   5.500000e+01   0.000000e+00
  2.000000e+00   5.600000e+01   0.000000e+00
  2.000000e+00   5.700000e+01   0.000000e+00
  2.000000e+00   5.800000e+01   0.000000e+00
  2.000000e+00   5.900000e+01   0.000000e+00
  2.000000e+00   6.000000e+01   0.000000e+00
  2.000000e+00   6.100000e+01   0.000000e+00
  2.000000e+00   6.200000e+01   0.000000e+00
  2.000000e+00   6.300000e+01   0.000000e+00
  3.000000e+00   0.000000e+00   0.000000e+00
  3.000000e+00   1.000000e+00   0.000000e+00
  3.000000e+00   2.000000e+00   0.000000e+00
  3.000000e+00   3.000000e+00   0.000000e+00
  3.000000e+00   4.000000e+00   0.000000e+00
  3.000000e+00   5.000000e+00   0.000000e+00
  3.000000e+00   6.000000e+00   0.000000e+00
  3.000000e+00   7.000000e+00   0.000000e+00
  3.000000e+00   8.000000e+00   0.000000e+00
  3.000000e+00   9.000000e+00   0.000000e+00
  3.000000e+00   1.000000e+01   0.000000e+00
  3.000000e+00   1.100000e+01   0.000000e+00
  3.000000e+00   1.200000e+01   0.000000e+00
  3.000000e+00   1.300000e+01   0.000000e+00
  3.000000e+00   1.400000e+01   0.000000e+00
  3.000000e+00   1.500000e+01   0.000000e+00
  3.000000e+00   1.600000e+01   0.000000e+00
  3.000000e+00   1.700000e+01   0.000000e+00
  3.000000e+00   1.800000e+01   0.000000e+00
  3.000000e+00   1.900000e+01   0.000000e+00
  3.000000e+00   2.000000e+01   0.000000e+00
  3.000000e+00   2.100000e+01   0.000000e+00
  3.000000e+00   2.200000e+01   0.000000e+00
  3.000000e+00   2.300000e+01   0.000000e+00
  3.000000e+00   2.400000e+01   0.000000e+00
  3.000000e+00   2.500000e+01   0.000000e+00
  3.000000e+00   2.600000e+01   0.000000e+00
[...]
POINT_DATA  4096
SCALARS CON float 1
LOOKUP_TABLE default
  5.503781e-01
  9.103966e-01
  9.905040e-01
  9.999000e-01
  9.999000e-01
  9.970180e-01
  9.664060e-01
  8.014510e-01
  2.780560e-01
  7.135589e-02
  2.672166e-02
  1.717711e-02
  1.514131e-02
  1.578028e-02
  1.808857e-02
  2.142589e-02
  2.510966e-02
  2.858647e-02
  3.148960e-02
  3.336602e-02
  3.347585e-02
  3.133606e-02
  2.738018e-02
  2.338772e-02
  2.338500e-02
  3.867284e-02
  1.113269e-01
  3.477910e-01
  7.211042e-01
  9.093504e-01
  9.676452e-01
  9.797087e-01
  9.718995e-01
  9.443004e-01
  8.924173e-01
  8.176493e-01
  7.109182e-01
  5.184797e-01
  2.827458e-01
  1.231324e-01
  5.427765e-02
  3.661306e-02
  3.628211e-02
  4.418955e-02
  6.150680e-02
  8.243202e-02
  8.578487e-02
  6.764822e-02
  4.737253e-02
  3.691613e-02
  3.629660e-02
  5.717269e-02
  1.478323e-01
  3.801823e-01
  6.447045e-01
  7.408628e-01
  6.779523e-01
  4.357030e-01
  1.734561e-01
  5.886155e-02
  2.889530e-02
  2.624190e-02
  4.576374e-02
  1.478694e-01
  4.701701e-01
  8.707106e-01
  9.767912e-01
  9.954346e-01
  9.947273e-01
  9.809626e-01
  9.187701e-01
  6.735853e-01
  2.052429e-01
  5.881959e-02
  2.876984e-02
  2.381090e-02
  2.587993e-02
  3.212843e-02
  4.084661e-02
  5.066747e-02
  6.125229e-02
  7.250885e-02
  8.328853e-02
  9.035733e-02
  8.928358e-02
  7.772421e-02
  5.806002e-02
  3.776572e-02
  2.618340e-02
  2.517260e-02
  4.412153e-02
  1.245349e-01
  3.605056e-01
  7.182757e-01
  9.049521e-01
  9.664489e-01
  9.824379e-01
  9.828932e-01
  9.761609e-01
  9.636630e-01
  9.394437e-01
  8.767160e-01
  7.094819e-01
  3.611175e-01
  1.170801e-01
  5.266324e-02
  4.724123e-02
  7.170033e-02
  1.447752e-01
  2.453208e-01
  2.601586e-01
  1.720713e-01
  8.257810e-02
  4.879594e-02
  4.914568e-02
  1.095590e-01
  3.667534e-01
  7.558399e-01
  9.162552e-01
  9.538793e-01
  9.294618e-01
  7.959256e-01
  4.247271e-01
  1.182481e-01
  3.887952e-02
  2.663159e-02
  4.193641e-02
  1.272981e-01
  2.748756e-01
  6.934932e-01
  8.933790e-01
  9.480250e-01
  9.488045e-01
  9.058914e-01
  7.614718e-01
  4.128701e-01
  1.384220e-01
  7.138411e-02
  6.530058e-02
  7.605946e-02
  1.004402e-01
  1.386428e-01
  1.811068e-01
  2.210311e-01
  2.594954e-01
  2.988280e-01
  3.359358e-01
  3.582406e-01
  3.476900e-01
  2.929074e-01
  1.988090e-01
  9.724294e-02
  4.347165e-02
  2.584421e-02
  2.474857e-02
  4.446129e-02
  1.225470e-01
  3.459810e-01
  7.006629e-01
  8.974157e-01
  9.657464e-01
  9.865403e-01
  9.926792e-01
  9.939372e-01
  9.911619e-01
  9.769004e-01
  9.132262e-01
  6.726890e-01
  2.223972e-01
  7.941570e-02
  6.761069e-02
  1.377121e-01
  3.929703e-01
  6.990547e-01
  7.306493e-01
  4.829289e-01
  1.672335e-01
  6.952840e-02
  6.696045e-02
  1.836929e-01
  6.266579e-01
  9.103250e-01
  9.831890e-01
  9.964200e-01
  9.876519e-01
  9.278759e-01
  6.783647e-01
  1.974658e-01
  5.116171e-02
  2.504723e-02
  3.159216e-02
  7.943545e-02
  1.103126e-01
  3.065369e-01
  5.757778e-01
  7.188276e-01
  7.269096e-01
  6.162904e-01
  3.894355e-01
  2.033980e-01
  1.605754e-01
  2.053180e-01
  2.627857e-01
  3.322902e-01
  4.416046e-01
  5.835050e-01
  6.971849e-01
  7.642873e-01
  8.035964e-01
  8.302657e-01
  8.495911e-01
  8.599111e-01
  8.532063e-01
  8.043447e-01
  6.363442e-01
  2.980902e-01
  9.295763e-02
  3.599441e-02
  2.219623e-02
  2.251908e-02
  4.136384e-02
  1.132533e-01
  3.206814e-01
  6.736224e-01
  8.850106e-01
  9.626734e-01
  9.885329e-01
  9.975048e-01
  9.999000e-01
  9.983894e-01
  9.674599e-01
  8.045802e-01
  3.014629e-01
  1.012555e-01
  8.513819e-02
  1.995749e-01
  6.046336e-01
  8.899598e-01
  9.113997e-01
  6.964783e-01
  2.372549e-01
  8.494363e-02
  7.891602e-02
  2.331287e-01
  7.482080e-01
  9.527288e-01
  9.950122e-01
  9.999000e-01
  9.969175e-01
  9.635891e-01
  7.941466e-01
  2.721655e-01
  6.344583e-02
  2.264778e-02
  2.142024e-02
  4.035001e-02
  3.982215e-02
  8.567767e-02
  1.549270e-01
  2.050759e-01
  2.113201e-01
  1.790543e-01
  1.425573e-01
  1.841753e-01
  4.086419e-01
  6.671319e-01
  7.876279e-01
  8.376881e-01
  8.741373e-01
  9.097106e-01
  9.369090e-01
  9.538808e-01
  9.645953e-01
  9.722460e-01
  9.780030e-01
  9.815454e-01
  9.810388e-01
  9.665457e-01
  8.885939e-01
  5.950800e-01
  1.723836e-01
  5.172341e-02
  2.480773e-02
  1.826293e-02
  1.991054e-02
  3.715704e-02
  1.011955e-01
  2.870020e-01
  6.273056e-01
  8.575396e-01
  9.507972e-01
  9.843595e-01
  9.961268e-01
  9.961985e-01
  9.650354e-01
  8.012595e-01
  3.014033e-01
  1.015435e-01
  8.217868e-02
  1.796542e-01
  5.327841e-01
  8.276168e-01
  8.493686e-01
  6.150941e-01
  2.069170e-01
  7.786490e-02
  7.676299e-02
  2.353063e-01
  7.588858e-01
  9.554550e-01
  9.948079e-01
  9.999000e-01
  9.974696e-01
  9.738678e-01
  8.473819e-01
  3.672276e-01
  8.224973e-02
  2.167623e-02
  1.437665e-02
  2.056353e-02
  1.785523e-02
  2.846595e-02
  4.245494e-02
  5.344245e-02
  5.811256e-02
  6.314682e-02
  1.010736e-01
  2.885391e-01
  7.299215e-01
  9.159552e-01
  9.634683e-01
  9.746053e-01
  9.791639e-01
  9.834413e-01
  9.874021e-01
  9.907277e-01
  9.936921e-01
  9.964504e-01
  9.987559e-01
  9.999000e-01
  9.999000e-01
  9.956697e-01
  9.489649e-01
  7.226014e-01
  2.182572e-01
  6.126418e-02
  2.727161e-02
  1.851523e-02
  1.569380e-02
  1.780665e-02
  3.279787e-02
  8.608077e-02
  2.367761e-01
  5.323889e-01
  7.892957e-01
  9.088223e-01
  9.520562e-01
  9.526161e-01
  8.904884e-01
  6.507236e-01
  2.196734e-01
  8.059451e-02
  6.374811e-02
  1.059652e-01
  2.509540e-01
  4.516345e-01
  4.721657e-01
  2.860074e-01
  1.134378e-01
  5.644740e-02
  6.322779e-02
  1.953187e-01
  6.826725e-01
  9.338476e-01
  9.892775e-01
  9.984988e-01
  9.968143e-01
  9.796148e-01
  8.902375e-01
  5.155689e-01
  1.202360e-01
  2.537124e-02
  1.044112e-02
  1.174850e-02
  1.044672e-02
  1.451873e-02
  1.905278e-02
  2.345880e-02
  2.892934e-02
  4.394118e-02
  1.095297e-01
  3.834418e-01
  8.516844e-01
  9.777602e-01
  9.994937e-01
  9.999000e-01
  9.975267e-01
  9.950163e-01
  9.932436e-01
  9.926771e-01
  9.933747e-01
  9.949542e-01
  9.967887e-01
  9.980587e-01
  9.972470e-01
  9.863040e-01
  9.230860e-01
  6.595056e-01
  1.940909e-01
  5.715613e-02
  2.745360e-02
  1.955345e-02
  1.620334e-02
  1.487131e-02
  1.707111e-02
  2.905199e-02
  6.764479e-02
  1.667507e-01
  3.581999e-01
  6.049208e-01
  7.370993e-01
  7.410203e-01
  6.017516e-01
  3.120404e-01
  1.120789e-01
  5.526916e-02
  4.806422e-02
  6.153503e-02
  9.866793e-02
  1.474558e-01
  1.524903e-01
  1.056192e-01
  6.089431e-02
  4.128065e-02
  4.736310e-02
  1.330661e-01
  5.020173e-01
  8.763298e-01
  9.757465e-01
  9.950943e-01
  9.959641e-01
  9.846350e-01
  9.282630e-01
  6.796869e-01
  1.936494e-01
  3.998913e-02
  1.047819e-02
  7.741213e-03
  7.667438e-03
  1.006195e-02
  1.314270e-02
  1.684015e-02
  2.278400e-02
  3.901147e-02
  1.049041e-01
  3.755856e-01
  8.488155e-01
  9.779338e-01
  9.997088e-01
  9.985859e-01
  9.921896e-01
  9.834142e-01
  9.741126e-01
  9.674754e-01
  9.649256e-01
  9.654927e-01
  9.670561e-01
  9.665072e-01
  9.568575e-01
  9.154918e-01
  7.711807e-01
  4.057361e-01
  1.200499e-01
  4.369866e-02
  2.612846e-02
  2.122206e-02
  1.954778e-02
  1.934121e-02
  2.011371e-02
  2.298532e-02
  3.195016e-02
  5.517401e-02
  1.031422e-01
  1.743313e-01
  2.267931e-01
  2.285165e-01
  1.760843e-01
  9.997518e-02
  5.400296e-02
  3.996908e-02
  3.908465e-02
  4.404841e-02
  5.407265e-02
  6.611030e-02
  6.974240e-02
  6.089764e-02
  4.779409e-02
  3.732339e-02
  3.701627e-02
  7.936952e-02
  2.928254e-01
  7.551345e-01
  9.434495e-01
  9.871765e-01
  9.942781e-01
  9.884306e-01
  9.558915e-01
  8.071984e-01
  3.500905e-01
  8.645434e-02
  2.037760e-02
  7.956959e-03
  9.343072e-03
  8.653429e-03
  1.061654e-02
  1.388451e-02
  1.923258e-02
  3.184548e-02
  7.712256e-02
  2.607820e-01
  7.101922e-01
  9.110129e-01
  9.591752e-01
  9.606269e-01
  9.426790e-01
  9.079627e-01
  8.632111e-01
  8.280102e-01
  8.109065e-01
  8.071974e-01
  8.074898e-01
  7.993921e-01
  7.592021e-01
  6.328518e-01
  3.778876e-01
  1.564556e-01
  5.968333e-02
  3.260530e-02
  2.613870e-02
  2.657753e-02
  3.269594e-02
  4.353640e-02
  5.373657e-02
  6.078429e-02
  6.623692e-02
  7.289117e-02
  8.232475e-02
  9.151932e-02
  9.083978e-02
  7.781015e-02
  5.991742e-02
  4.382016e-02
  3.526957e-02
  3.324901e-02
  3.444306e-02
  3.778930e-02
  4.465713e-02
  5.789795e-02
  7.537951e-02
  8.378369e-02
  7.554781e-02
  5.585846e-02
  3.980527e-02
  5.051745e-02
  1.528547e-01
  5.169522e-01
  8.582086e-01
  9.643515e-01
  9.887271e-01
  9.902023e-01
  9.748922e-01
  9.033442e-01
  6.314141e-01
  2.257855e-01
  6.279094e-02
  1.909624e-02
  2.503999e-02
  1.237722e-02
  1.010554e-02
  1.166374e-02
  1.555123e-02
  2.340828e-02
  4.524575e-02
  1.220801e-01
  3.522445e-01
  6.346273e-01
  7.556798e-01
  7.648012e-01
  7.049495e-01
  5.748573e-01
  4.140400e-01
  3.108007e-01
  2.698821e-01
  2.610297e-01
  2.618267e-01
  2.562642e-01
  2.309232e-01
  1.776690e-01
  1.073017e-01
  5.691078e-02
  3.499189e-02
  2.892459e-02
  3.146552e-02
  4.757410e-02
  9.184103e-02
  1.629853e-01
  2.243237e-01
  2.608147e-01
  2.784701e-01
  2.835741e-01
  2.747073e-01
  2.420199e-01
  1.771206e-01
  1.002579e-01
  5.340886e-02
  3.568686e-02
  3.083578e-02
  3.057521e-02
  3.238747e-02
  3.780237e-02
  5.561704e-02
  1.083799e-01
  1.992089e-01
  2.577260e-01
  2.412681e-01
  1.620701e-01
  7.898813e-02
  4.624405e-02
  7.568551e-02
  2.484067e-01
  6.486089e-01
  8.926236e-01
  9.682359e-01
  9.865235e-01
  9.846531e-01
  9.581941e-01
  8.499848e-01
  5.440624e-01
  2.111264e-01
  6.999966e-02
  9.555687e-02
  3.635645e-02
  1.697418e-02
  1.210384e-02
  1.296109e-02
  1.707870e-02
  2.593040e-02
  4.809969e-02
  1.021146e-01
  1.770887e-01
  2.209390e-01
  2.197310e-01
  1.860840e-01
  1.372356e-01
  9.321060e-02
  6.921038e-02
  6.226211e-02
  6.421180e-02
  6.833826e-02
  6.940817e-02
  6.457063e-02
  5.404102e-02
  4.136316e-02
  3.248886e-02
  2.912288e-02
  3.180374e-02
  5.003155e-02
  1.227350e-01
  3.233956e-01
  5.980563e-01
  7.529756e-01
  8.072709e-01
  8.233918e-01
  8.247857e-01
  8.107303e-01
  7.554300e-01
  5.919539e-01
  3.080646e-01
  1.133418e-01
  4.807946e-02
  3.240963e-02
  3.002126e-02
  3.254194e-02
  4.549784e-02
  1.026264e-01
  3.084445e-01
  6.262454e-01
  7.678926e-01
  7.444279e-01
  5.438286e-01
  2.312339e-01
  7.604253e-02
  4.752462e-02
  9.973687e-02
  3.086560e-01
  6.829245e-01
  8.939333e-01
  9.645699e-01
  9.832476e-01
  9.803563e-01
  9.490255e-01
  8.401369e-01
  5.764773e-01
  2.565226e-01
  3.440394e-01
  1.422905e-01
  5.705845e-02
  2.632529e-02
  1.688550e-02
  1.580081e-02
  1.851621e-02
  2.454998e-02
  3.528457e-02
  4.801419e-02
  5.431853e-02
  5.146798e-02
  4.248132e-02
  3.201240e-02
  2.465734e-02
  2.355871e-02
  2.908056e-02
  3.913800e-02
  4.816877e-02
  4.965056e-02
  4.376252e-02
  3.645028e-02
  3.147536e-02
  2.916068e-02
  3.011065e-02
  4.053575e-02
  9.281341e-02
  3.065095e-01
  7.108629e-01
  8.989480e-01
  9.549941e-01
  9.695670e-01
  9.729425e-01
  9.729973e-01
  9.694661e-01
  9.533840e-01
  8.905131e-01
  6.805963e-01
  2.690389e-01
  8.260572e-02
  3.877517e-02
  3.097793e-02
  3.445725e-02
  6.038533e-02
  1.879129e-01
  6.198617e-01
  8.913244e-01
  9.606915e-01
  9.530637e-01
  8.536236e-01
  5.206404e-01
  1.456457e-01
  4.801956e-02
  4.426066e-02
  1.079448e-01
  3.109574e-01
  6.628678e-01
  8.774025e-01
  9.566071e-01
  9.800983e-01
  9.795821e-01
  9.534671e-01
  8.698975e-01
  6.655461e-01
  7.591325e-01
  4.823752e-01
  2.298033e-01
  1.046885e-01
  5.298865e-02
  3.285755e-02
  2.475420e-02
  2.222466e-02
  2.218813e-02
  2.281898e-02
  2.222528e-02
  1.993687e-02
  1.696210e-02
  1.503031e-02
  1.660240e-02
  2.594237e-02
  4.971553e-02
  8.725175e-02
  1.178274e-01
  1.133224e-01
  7.959067e-02
  4.895764e-02
  3.537891e-02
  3.107901e-02
  3.299220e-02
  5.181745e-02
  1.500423e-01
  5.327818e-01
  8.853131e-01
  9.780807e-01
  9.958334e-01
  9.982130e-01
  9.982785e-01
  9.981967e-01
  9.978803e-01
  9.947307e-01
  9.735304e-01
  8.654370e-01
  4.737123e-01
  1.321059e-01
  4.790595e-02
  3.260930e-02
  3.628714e-02
  7.215468e-02
  2.508175e-01
  7.699988e-01
  9.617059e-01
  9.999000e-01
  9.983082e-01
  9.486412e-01
  7.186833e-01
  2.117124e-01
  5.713986e-02
  2.908280e-02
  3.964421e-02
  9.963220e-02
  2.762241e-01
  6.067414e-01
  8.447501e-01
  9.431393e-01
  9.757015e-01
  9.804528e-01
  9.636337e-01
  9.062561e-01
  9.348713e-01
  8.456342e-01
  6.695967e-01
  4.124777e-01
  2.316472e-01
  1.356350e-01
  7.907568e-02
  4.772267e-02
  3.013307e-02
  2.181920e-02
  1.791752e-02
  1.534697e-02
  1.371774e-02
  1.464243e-02
  2.359930e-02
  5.785620e-02
  1.545331e-01
  3.069767e-01
  4.188465e-01
  3.858532e-01
  2.317837e-01
  9.492032e-02
  4.694495e-02
  3.436441e-02
  3.497405e-02
  5.724309e-02
  1.767509e-01
  6.234091e-01
  9.247977e-01
  9.915369e-01
  9.999000e-01
  9.999000e-01
  9.999000e-01
  9.999000e-01
  9.999000e-01
  9.999000e-01
  9.904498e-01
  9.164500e-01
  5.860263e-01
  1.629335e-01
  5.363201e-02
  3.358612e-02
  3.641699e-02
  7.241341e-02
  2.526274e-01
  7.735509e-01
  9.627746e-01
  9.999000e-01
  9.999000e-01
  9.576772e-01
  7.470431e-01
  2.261902e-01
  6.037415e-02
  2.632001e-02
  2.207437e-02
  3.443898e-02
  8.341091e-02
  2.247645e-01
  5.146290e-01
  7.873511e-01
  9.163617e-01
  9.636672e-01
  9.769580e-01
  9.697698e-01
  9.670555e-01
  9.542817e-01
  9.148727e-01
  8.374468e-01
  7.200986e-01
  5.356208e-01
  3.265701e-01
  1.773209e-01
  7.986409e-02
  3.592684e-02
  2.127457e-02
  1.597881e-02
  1.428779e-02
  1.857297e-02
  4.530063e-02
  1.583639e-01
  4.768040e-01
  7.731392e-01
  8.690406e-01
  8.321390e-01
  5.969125e-01
  1.978563e-01
  6.693236e-02
  3.788605e-02
  3.481171e-02
  5.222298e-02
  1.487917e-01
  5.279711e-01
  8.838248e-01
  9.780526e-01
  9.963558e-01
  9.991709e-01
  9.996280e-01
  9.998520e-01
  9.999000e-01
  9.984400e-01
  9.822542e-01
  8.902684e-01
  5.258029e-01
  1.465961e-01
  5.107307e-02
  3.350600e-02
  3.533408e-02
  6.171207e-02
  1.934752e-01
  6.352170e-01
  8.992183e-01
  9.666190e-01
  9.667944e-01
  8.963951e-01
  6.171721e-01
  1.799808e-01
  5.383665e-02
  2.640938e-02
  1.966596e-02
  1.959730e-02
  2.938265e-02
  6.527457e-02
  1.661363e-01
  3.858401e-01
  6.806138e-01
  8.513355e-01
  9.293233e-01
  9.598183e-01
  9.166825e-01
  9.532799e-01
  9.652168e-01
  9.594866e-01
  9.383706e-01
  8.920396e-01
  7.962884e-01
  5.826593e-01
  2.581992e-01
  8.120236e-02
  3.152789e-02
  1.839617e-02
  1.586653e-02
  2.690096e-02
  9.243453e-02
  3.598686e-01
  7.848972e-01
  9.469045e-01
  9.834677e-01
  9.591571e-01
  7.912419e-01
  2.835159e-01
  8.264348e-02
  3.963653e-02
  3.305665e-02
  4.173179e-02
  9.268254e-02
  3.043656e-01
  7.121140e-01
  9.026964e-01
  9.592046e-01
  9.745852e-01
  9.790554e-01
  9.802008e-01
  9.784586e-01
  9.680750e-01
  9.225285e-01
  7.496340e-01
  3.293874e-01
  9.875065e-02
  4.426125e-02
  3.575757e-02
  3.851058e-02
  5.224912e-02
  1.124787e-01
  3.317282e-01
  6.535906e-01
  7.941084e-01
  7.947974e-01
  6.527171e-01
  3.234249e-01
  1.056031e-01
  4.508618e-02
  2.919445e-02
  2.273176e-02
  1.908727e-02
  1.861113e-02
  2.494179e-02
  4.780199e-02
  1.085464e-01
  2.411345e-01
  4.680531e-01
  7.037046e-01
  8.400618e-01
  6.716413e-01
  8.405242e-01
  9.324492e-01
  9.715252e-01
  9.843239e-01
  9.828397e-01
  9.613318e-01
  8.735628e-01
  5.781812e-01
  1.685958e-01
  4.909521e-02
  2.200845e-02
  1.876884e-02
  4.319718e-02
  1.776119e-01
  6.217701e-01
  9.122078e-01
  9.874003e-01
  9.999000e-01
  9.755073e-01
  8.220570e-01
  2.979466e-01
  8.329281e-02
  3.861053e-02
  3.131529e-02
  3.387557e-02
  5.197879e-02
  1.256609e-01
  3.344788e-01
  6.196325e-01
  7.745424e-01
  8.307232e-01
  8.504436e-01
  8.549824e-01
  8.454464e-01
  8.057998e-01
  6.808626e-01
  3.968057e-01
  1.474952e-01
  6.059289e-02
  4.599313e-02
  5.581776e-02
  6.940727e-02
  7.684451e-02
  8.625680e-02
  1.291976e-01
  2.167178e-01
  2.818423e-01
  2.825435e-01
  2.157976e-01
  1.217710e-01
  7.061430e-02
  5.447901e-02
  4.492181e-02
  3.435059e-02
  2.526223e-02
  1.981719e-02
  1.816316e-02
  2.122044e-02
  3.300894e-02
  6.229355e-02
  1.235834e-01
  2.336522e-01
  4.239651e-01
  2.266557e-01
  4.696196e-01
  7.594936e-01
  9.166552e-01
  9.766242e-01
  9.969614e-01
  9.974506e-01
  9.576622e-01
  7.567364e-01
  2.407907e-01
  6.406694e-02
  2.551620e-02
  2.498364e-02
  7.605135e-02
  3.147556e-01
  7.905105e-01
  9.576869e-01
  9.941302e-01
  9.949443e-01
  9.560540e-01
  7.617336e-01
  2.483111e-01
  7.095756e-02
  3.648313e-02
  3.142736e-02
  3.162154e-02
  3.564482e-02
  5.247740e-02
  1.000817e-01
  1.796717e-01
  2.536503e-01
  3.062164e-01
  3.376643e-01
  3.470673e-01
  3.307290e-01
  2.852053e-01
  2.103655e-01
  1.206493e-01
  6.313947e-02
  5.215679e-02
  8.345922e-02
  1.602330e-01
  2.306062e-01
  2.423436e-01
  1.909278e-01
  1.194544e-01
  8.967490e-02
  8.790285e-02
  8.744244e-02
  8.385269e-02
  9.137421e-02
  1.175549e-01
  1.368386e-01
  1.218737e-01
  8.265483e-02
  4.704547e-02
  2.788003e-02
  2.035117e-02
  1.795051e-02
  1.851809e-02
  2.272356e-02
  3.336423e-02
  5.643782e-02
  1.085617e-01
  5.751860e-02
  1.432459e-01
  3.658333e-01
  7.104502e-01
  9.010459e-01
  9.693902e-01
  9.852577e-01
  9.499404e-01
  7.507282e-01
  2.415057e-01
  6.534929e-02
  2.871392e-02
  4.130675e-02
  1.510785e-01
  5.409939e-01
  8.853309e-01
  9.750205e-01
  9.909320e-01
  9.776556e-01
  8.962189e-01
  5.868311e-01
  1.679641e-01
  5.602792e-02
  3.860214e-02
  3.804194e-02
  3.704949e-02
  3.462077e-02
  3.476478e-02
  4.111697e-02
  5.387536e-02
  6.745999e-02
  7.838072e-02
  8.564737e-02
  8.836202e-02
  8.536143e-02
  7.607668e-02
  6.165123e-02
  4.713849e-02
  4.521315e-02
  8.083319e-02
  2.306196e-01
  5.367815e-01
  7.338701e-01
  7.519757e-01
  6.010644e-01
  2.915483e-01
  1.044499e-01
  5.623320e-02
  5.432434e-02
  8.734210e-02
  1.997093e-01
  3.715549e-01
  4.804763e-01
  4.378731e-01
  2.830400e-01
  1.293080e-01
  5.156146e-02
  2.743065e-02
  2.057792e-02
  1.832670e-02
  1.747283e-02
  1.762766e-02
  1.997175e-02
  2.893955e-02
  2.076304e-02
  4.162306e-02
  1.135239e-01
  3.091953e-01
  6.275489e-01
  8.141182e-01
  8.667317e-01
  8.075849e-01
  5.383633e-01
  1.661707e-01
  5.321895e-02
  3.671277e-02
  8.688359e-02
  3.129667e-01
  7.567698e-01
  9.403535e-01
  9.815066e-01
  9.811044e-01
  9.381526e-01
  7.556177e-01
  3.259248e-01
  9.690651e-02
  5.414101e-02
  6.303213e-02
  7.284633e-02
  6.588028e-02
  4.859227e-02
  3.664910e-02
  3.154825e-02
  3.039369e-02
  3.099356e-02
  3.233861e-02
  3.393782e-02
  3.516499e-02
  3.537484e-02
  3.434115e-02
  3.282290e-02
  3.414386e-02
  5.180678e-02
  1.454902e-01
  5.022422e-01
  8.476796e-01
  9.510855e-01
  9.572778e-01
  8.798655e-01
  5.895412e-01
  1.784346e-01
  6.596882e-02
  6.487691e-02
  1.646473e-01
  5.153338e-01
  8.046074e-01
  8.893847e-01
  8.696134e-01
  7.278637e-01
  3.750384e-01
  1.127097e-01
  4.149201e-02
  2.569505e-02
  2.205634e-02
  2.078832e-02
  1.948637e-02
  1.773852e-02
  1.678355e-02
  2.017564e-02
  2.099062e-02
  3.707860e-02
  8.833525e-02
  1.952598e-01
  3.221221e-01
  3.951822e-01
  3.423954e-01
  1.966056e-01
  7.880763e-02
  4.367023e-02
  6.765795e-02
  2.136064e-01
  6.030624e-01
  8.884720e-01
  9.683117e-01
  9.813065e-01
  9.603148e-01
  8.505138e-01
  4.943434e-01
  1.567535e-01
  7.058508e-02
  9.930984e-02
  1.862256e-01
  2.358916e-01
  1.958512e-01
  1.054849e-01
  5.343909e-02
  3.466545e-02
  2.827095e-02
  2.652694e-02
  2.755852e-02
  3.044268e-02
  3.323572e-02
  3.413937e-02
  3.284114e-02
  3.125165e-02
  3.456550e-02
  6.113889e-02
  1.985100e-01
  6.769377e-01
  9.389451e-01
  9.978776e-01
  9.999000e-01
  9.544439e-01
  7.392518e-01
  2.335828e-01
  7.852900e-02
  8.287976e-02