# vtk DataFile Version 2.0
time_10.vtk
ASCII
DATASET STRUCTURED_GRID
DIMENSIONS    64    64     1
POINTS    4096 float
  0.000000e+00   0.000000e+00   0.000000e+00
  0.000000e+00   1.000000e+00   0.000000e+00
  0.000000e+00   2.000000e+00   0.000000e+00
  0.000000e+00   3.000000e+00   0.000000e+00
  0.000000e+00   4.000000e+00   0.000000e+00
  0.000000e+00   5.000000e+00   0.000000e+00
  0.000000e+00   6.000000e+00   0.000000e+00
  0.000000e+00   7.000000e+00   0.000000e+00
  0.000000e+00   8.000000e+00   0.000000e+00
  0.000000e+00   9.000000e+00   0.000000e+00
  0.000000e+00   1.000000e+01   0.000000e+00
  0.000000e+00   1.100000e+01   0.000000e+00
  0.000000e+00   1.200000e+01   0.000000e+00
  0.000000e+00   1.300000e+01   0.000000e+00
  0.000000e+00   1.400000e+01   0.000000e+00
  0.000000e+00   1.500000e+01   0.000000e+00
  0.000000e+00   1.600000e+01   0.000000e+00
  0.000000e+00   1.700000e+01   0.000000e+00
  0.000000e+00   1.800000e+01   0.000000e+00
  0.000000e+00   1.900000e+01   0.000000e+00
  0.000000e+00   2.000000e+01   0.000000e+00
  0.000000e+00   2.100000e+01   0.000000e+00
  0.000000e+00   2.200000e+01   0.000000e+00
  0.000000e+00   2.300000e+01   0.000000e+00
  0.000000e+00   2.400000e+01   0.000000e+00
  0.000000e+00   2.500000e+01   0.000000e+00
  0.000000e+00   2.600000e+01   0.000000e+00
  0.000000e+00   2.700000e+01   0.000000e+00
  0.000000e+00   2.800000e+01   0.000000e+00
  0.000000e+00   2.900000e+01   0.000000e+00
  0.000000e+00   3.000000e+01   0.000000e+00
  0.000000e+00   3.100000e+01   0.000000e+00
  0.000000e+00   3.200000e+01   0.000000e+00
  0.000000e+00   3.300000e+01   0.000000e+00
  0.000000e+00   3.400000e+01   0.000000e+00
  0.000000e+00   3.500000e+01   0.000000e+00
  0.000000e+00   3.600000e+01   0.000000e+00
  0.000000e+00   3.700000e+01   0.000000e+00
  0.000000e+00   3.800000e+01   0.000000e+00
  0.000000e+00   3.900000e+01   0.000000e+00
  0.000000e+00   4.000000e+01   0.000000e+00
  0.000000e+00   4.100000e+01   0.000000e+00
  0.000000e+00   4.200000e+01   0.000000e+00
  0.000000e+00   4.300000e+01   0.000000e+00
  0.000000e+00   4.400000e+01   0.000000e+00
  0.000000e+00   4.500000e+01   0.000000e+00
  0.000000e+00   4.600000e+01   0.000000e+00
  0.000000e+00   4.700000e+01   0.000000e+00
  0.000000e+00   4.800000e+01   0.000000e+00
  0.000000e+00   4.900000e+01   0.000000e+00
  0.000000e+00   5.000000e+01   0.000000e+00
  0.000000e+00   5.100000e+01   0.000000e+00
  0.000000e+00   5.200000e+01   0.000000e+00
  0.000000e+00   5.300000e+01   0.000000e+00
  0.000000e+00   5.400000e+01   0.000000e+00
  0.000000e+00   5.500000e+01   0.000000e+00
  0.000000e+00   5.600000e+01   0.000000e+00
  0.000000e+00   5.700000e+01   0.000000e+00
  0.000000e+00   5.800000e+01   0.000000e+00
  0.000000e+00   5.900000e+01   0.000000e+00
  0.000000e+00   6.000000e+01   0.000000e+00
  0.000000e+00   6.100000e+01   0.000000e+00
  0.000000e+00   6.200000e+01   0.000000e+00
  0.000000e+00   6.300000e+01   0.000000e+00
  1.000000e+00   0.000000e+00   0.000000e+00
  1.000000e+00   1.000000e+00   0.000000e+00
  1.000000e+00   2.000000e+00   0.000000e+00
  1.000000e+00   3.000000e+00   0.000000e+00
  1.000000e+00   4.000000e+00   0.000000e+00
  1.000000e+00   5.000000e+00   0.000000e+00
  1.000000e+00   6.000000e+00   0.000000e+00
  1.000000e+00   7.000000e+00   0.000000e+00
  1.000000e+00   8.000000e+00   0.000000e+00
  1.000000e+00   9.000000e+00   0.000000e+00
  1.000000e+00   1.000000e+01   0.000000e+00
  1.000000e+00   1.100000e+01   0.000000e+00
  1.000000e+00   1.200000e+01   0.000000e+00
  1.000000e+00   1.300000e+01   0.000000e+00
  1.000000e+00   1.400000e+01   0.000000e+00
  1.000000e+00   1.500000e+01   0.000000e+00
  1.000000e+00   1.600000e+01   0.000000e+00
  1.000000e+00   1.700000e+01   0.000000e+00
  1.000000e+00   1.800000e+01   0.000000e+00
  1.000000e+00   1.900000e+01   0.000000e+00
  1.000000e+00   2.000000e+01   0.000000e+00
  1.000000e+00   2.100000e+01   0.000000e+00
  1.000000e+00   2.200000e+01   0.000000e+00
  1.000000e+00   2.300000e+01   0.000000e+00
  1.000000e+00   2.400000e+01   0.000000e+00
  1.000000e+00   2.500000e+01   0.000000e+00
  1.000000e+00   2.600000e+01   0.000000e+00
  1.000000e+00   2.700000e+01   0.000000e+00
  1.000000e+00   2.800000e+01   0.000000e+00
  1.000000e+00   2.900000e+01   0.000000e+00
  1.000000e+00   3.000000e+01   0.000000e+00
  1.000000e+00   3.100000e+01   0.000000e+00
  1.000000e+00   3.200000e+01   0.000000e+00
  1.000000e+00   3.300000e+01   0.000000e+00
  1.000000e+00   3.400000e+01   0.000000e+00
  1.000000e+00   3.500000e+01   0.000000e+00
  1.000000e+00   3.600000e+01   0.000000e+00
  1.000000e+00   3.700000e+01   0.000000e+00
  1.000000e+00   3.800000e+01   0.000000e+00
  1.000000e+00   3.900000e+01   0.000000e+00
  1.000000e+00   4.000000e+01   0.000000e+00
  1.000000e+00   4.100000e+01   0.000000e+00
  1.000000e+00   4.200000e+01   0.000000e+00
  1.000000e+00   4.300000e+01   0.000000e+00
  1.000000e+00   4.400000e+01   0.000000e+00
  1.000000e+00   4.500000e+01   0.000000e+00
  1.000000e+00   4.600000e+01   0.000000e+00
  1.000000e+00   4.700000e+01   0.000000e+00
  1.000000e+00   4.800000e+01   0.000000e+00
  1.000000e+00   4.900000e+01   0.000000e+00
  1.000000e+00   5.000000e+01   0.000000e+00
  1.000000e+00   5.100000e+01   0.000000e+00
  1.000000e+00   5.200000e+01   0.000000e+00
  1.000000e+00   5.300000e+01   0.000000e+00
  1.000000e+00   5.400000e+01   0.000000e+00
  1.000000e+00   5.500000e+01   0.000000e+00
  1.000000e+00   5.600000e+01   0.000000e+00
  1.000000e+00   5.700000e+01   0.000000e+00
  1.000000e+00   5.800000e+01   0.000000e+00
  1.000000e+00   5.900000e+01   0.000000e+00
  1.000000e+00   6.000000e+01   0.000000e+00
  1.000000e+00   6.100000e+01   0.000000e+00
  1.000000e+00   6.200000e+01   0.000000e+00
  1.000000e+00   6.300000e+01   0.000000e+00
  2.000000e+00   0.000000e+00   0.000000e+00
  2.000000e+00   1.000000e+00   0.000000e+00
  2.000000e+00   2.000000e+00   0.000000e+00
  2.000000e+00   3.000000e+00   0.000000e+00
  2.000000e+00   4.000000e+00   0.000000e+00
  2.000000e+00   5.000000e+00   0.000000e+00
  2.000000e+00   6.000000e+00   0.000000e+00
  2.000000e+00   7.000000e+00   0.000000e+00
  2.000000e+00   8.000000e+00   0.000000e+00
  2.000000e+00   9.000000e+00   0.000000e+00
  2.000000e+00   1.000000e+01   0.000000e+00
  2.000000e+00   1.100000e+01   0.000000e+00
  2.000000e+00   1.200000e+01   0.000000e+00
  2.000000e+00   1.300000e+01   0.000000e+00
  2.000000e+00   1.400000e+01   0.000000e+00
  2.000000e+00   1.500000e+01   0.000000e+00
  2.000000e+00   1.600000e+01   0.000000e+00
  2.000000e+00   1.700000e+01   0.000000e+00
  2.000000e+00   1.800000e+01   0.000000e+00
  2.000000e+00   1.900000e+01   0.000000e+00
  2.000000e+00   2.000000e+01   0.000000e+00
  2.000000e+00   2.100000e+01   0.000000e+00
  2.000000e+00   2.200000e+01   0.000000e+00
  2.000000e+00   2.300000e+01   0.000000e+00
  2.000000e+00   2.400000e+01   0.000000e+00
  2.000000e+00   2.500000e+01   0.000000e+00
  2.000000e+00   2.600000e+01   0.000000e+00
  2.000000e+00   2.700000e+01   0.000000e+00
  2.000000e+00   2.800000e+01   0.000000e+00
  2.000000e+00   2.900000e+01   0.000000e+00
  2.000000e+00   3.000000e+01   0.000000e+00
  2.000000e+00   3.100000e+01   0.000000e+00
  2.000000e+00   3.200000e+01   0.000000e+00
  2.000000e+00   3.300000e+01   0.000000e+00
  2.000000e+00   3.400000e+01   0.000000e+00
  2.000000e+00   3.500000e+01   0.000000e+00
  2.000000e+00   3.600000e+01   0.000000e+00
  2.000000e+00   3.700000e+01   0.000000e+00
  2.000000e+00   3.800000e+01   0.000000e+00
  2.000000e+00   3.900000e+01   0.000000e+00
  2.000000e+00   4.000000e+01   0.000000e+00
  2.000000e+00   4.100000e+01   0.000000e+00
  2.000000e+00   4.200000e+01   0.000000e+00
  2.000000e+00   4.300000e+01   0.000000e+00
  2.000000e+00   4.400000e+01   0.000000e+00
  2.000000e+00   4.500000e+01   0.000000e+00
  2.000000e+00   4.600000e+01   0.000000e+00
  2.000000e+00   4.700000e+01   0.000000e+00
  2.000000e+00   4.800000e+01   0.000000e+00
  2.000000e+00   4.900000e+01   0.000000e+00
  2.000000e+00   5.000000e+01   0.000000e+00
  2.000000e+00   5.100000e+01   0.000000e+00
  2.000000e+00   5.200000e+01   0.000000e+00
  2.000000e+00   5.300000e+01   0.000000e+00
  2.000000e+00   5.400000e+01   0.000000e+00
  2.000000e+00   5.500000e+01   0.000000e+00
  2.000000e+00   5.600000e+01   0.000000e+00
  2.000000e+00   5.700000e+01   0.000000e+00
  2.000000e+00   5.800000e+01   0.000000e+00
  2.000000e+00   5.900000e+01   0.000000e+00
  2.000000e+00   6.000000e+01   0.000000e+00
  2.000000e+00   6.100000e+01   0.000000e+00
  2.000000e+00   6.200000e+01   0.000000e+00
  2.000000e+00   6.300000e+01   0.000000e+00
  3.000000e+00   0.000000e+00   0.000000e+00
  3.000000e+00   1.000000e+00   0.000000e+00
  3.000000e+00   2.000000e+00   0.000000e+00
  3.000000e+00   3.000000e+00   0.000000e+00
  3.000000e+00   4.000000e+00   0.000000e+00
  3.000000e+00   5.000000e+00   0.000000e+00
  3.000000e+00   6.000000e+00   0.000000e+00
  3.000000e+00   7.000000e+00   0.000000e+00
  3.000000e+00   8.000000e+00   0.000000e+00
  3.000000e+00   9.000000e+00   0.000000e+00
  3.000000e+00   1.000000e+01   0.000000e+00
  3.000000e+00   1.100000e+01   0.000000e+00
  3.000000e+00   1.200000e+01   0.000000e+00
  3.000000e+00   1.300000e+01   0.000000e+00
  3.000000e+00   1.400000e+01   0.000000e+00
  3.000000e+00   1.500000e+01   0.000000e+00
  3.000000e+00   1.600000e+01   0.000000e+00
  3.000000e+00   1.700000e+01   0.000000e+00
  3.000000e+00   1.800000e+01   0.000000e+00
  3.000000e+00   1.900000e+01   0.000000e+00
  3.000000e+00   2.000000e+01   0.000000e+00
  3.000000e+00   2.100000e+01   0.000000e+00
  3.000000e+00   2.200000e+01   0.000000e+00
  3.000000e+00   2.300000e+01   0.000000e+00
  3.000000e+00   2.400000e+01   0.000000e+00
  3.000000e+00   2.500000e+01   0.000000e+00
  3.000000e+00   2.600000e+01   0.000000e+00
[...]
POINT_DATA  4096
SCALARS CON float 1
LOOKUP_TABLE default
  5.254299e-01
  9.045653e-01
  9.897418e-01
  9.999000e-01
  9.999000e-01
  9.971225e-01
  9.661102e-01
  7.990016e-01
  2.725601e-01
  6.948264e-02
  2.601555e-02
  1.684170e-02
  1.500996e-02
  1.578642e-02
  1.815113e-02
  2.147499e-02
  2.510406e-02
  2.850798e-02
  3.132609e-02
  3.309641e-02
  3.309847e-02
  3.089136e-02
  2.693453e-02
  2.301093e-02
  2.310375e-02
  3.851196e-02
  1.115226e-01
  3.490948e-01
  7.227463e-01
  9.102724e-01
  9.682454e-01
  9.804176e-01
  9.732769e-01
  9.470276e-01
  8.966016e-01
  8.216056e-01
  7.140439e-01
  5.207151e-01
  2.832687e-01
  1.229813e-01
  5.416642e-02
  3.658109e-02
  3.624819e-02
  4.391823e-02
  6.047580e-02
  8.049839e-02
  8.340833e-02
  6.573139e-02
  4.652747e-02
  3.661248e-02
  3.621837e-02
  5.721055e-02
  1.474497e-01
  3.761870e-01
  6.380802e-01
  7.335649e-01
  6.667901e-01
  4.215883e-01
  1.672087e-01
  5.732537e-02
  2.856805e-02
  2.608528e-02
  4.470195e-02
  1.410403e-01
  4.447809e-01
  8.623896e-01
  9.751800e-01
  9.952917e-01
  9.950182e-01
  9.817458e-01
  9.203017e-01
  6.755348e-01
  2.044112e-01
  5.828371e-02
  2.857922e-02
  2.397646e-02
  2.649172e-02
  3.306807e-02
  4.183378e-02
  5.154936e-02
  6.198008e-02
  7.301591e-02
  8.342197e-02
  8.994063e-02
  8.830124e-02
  7.639864e-02
  5.673183e-02
  3.681616e-02
  2.566215e-02
  2.488149e-02
  4.405141e-02
  1.250703e-01
  3.625429e-01
  7.204316e-01
  9.060402e-01
  9.670178e-01
  9.829055e-01
  9.834736e-01
  9.768990e-01
  9.643568e-01
  9.400146e-01
  8.771097e-01
  7.092698e-01
  3.602229e-01
  1.167570e-01
  5.263966e-02
  4.711517e-02
  7.047059e-02
  1.398075e-01
  2.368185e-01
  2.500893e-01
  1.638242e-01
  7.986030e-02
  4.823551e-02
  4.933533e-02
  1.106881e-01
  3.695335e-01
  7.554826e-01
  9.148184e-01
  9.520697e-01
  9.260892e-01
  7.883453e-01
  4.142436e-01
  1.156187e-01
  3.836537e-02
  2.639570e-02
  4.081792e-02
  1.206940e-01
  2.608988e-01
  6.809473e-01
  8.893241e-01
  9.473926e-01
  9.499152e-01
  9.091760e-01
  7.681065e-01
  4.201597e-01
  1.400822e-01
  7.193303e-02
  6.628343e-02
  7.844875e-02
  1.049382e-01
  1.443102e-01
  1.862437e-01
  2.251696e-01
  2.627774e-01
  3.011957e-01
  3.368454e-01
  3.569916e-01
  3.441763e-01
  2.878443e-01
  1.933632e-01
  9.360150e-02
  4.208667e-02
  2.529736e-02
  2.449823e-02
  4.450159e-02
  1.233577e-01
  3.485332e-01
  7.033481e-01
  8.986969e-01
  9.662878e-01
  9.868070e-01
  9.928444e-01
  9.940395e-01
  9.912138e-01
  9.768536e-01
  9.128406e-01
  6.713050e-01
  2.215522e-01
  7.929867e-02
  6.716798e-02
  1.338757e-01
  3.768618e-01
  6.836471e-01
  7.138687e-01
  4.586154e-01
  1.597031e-01
  6.831396e-02
  6.757402e-02
  1.867887e-01
  6.326928e-01
  9.116390e-01
  9.832115e-01
  9.960984e-01
  9.868401e-01
  9.256102e-01
  6.729779e-01
  1.960551e-01
  5.091397e-02
  2.488278e-02
  3.090090e-02
  7.587393e-02
  1.055827e-01
  2.966632e-01
  5.669716e-01
  7.169046e-01
  7.305650e-01
  6.260279e-01
  4.003460e-01
  2.080211e-01
  1.617960e-01
  2.070250e-01
  2.673062e-01
  3.428516e-01
  4.598925e-01
  6.018432e-01
  7.084637e-01
  7.701242e-01
  8.066832e-01
  8.319359e-01
  8.502406e-01
  8.595181e-01
  8.514054e-01
  7.993953e-01
  6.239889e-01
  2.852535e-01
  8.904563e-02
  3.490828e-02
  2.178226e-02
  2.234547e-02
  4.150509e-02
  1.142488e-01
  3.236092e-01
  6.769575e-01
  8.865976e-01
  9.632656e-01
  9.887341e-01
  9.975631e-01
  9.999000e-01
  9.982689e-01
  9.670353e-01
  8.031497e-01
  2.998921e-01
  1.009993e-01
  8.454994e-02
  1.944568e-01
  5.871451e-01
  8.820363e-01
  9.032806e-01
  6.768630e-01
  2.284381e-01
  8.363733e-02
  8.003586e-02
  2.379945e-01
  7.544345e-01
  9.543086e-01
  9.953325e-01
  9.999000e-01
  9.967653e-01
  9.632759e-01
  7.941193e-01
  2.750956e-01
  6.421382e-02
  2.270756e-02
  2.111718e-02
  3.903059e-02
  3.861415e-02
  8.324776e-02
  1.522899e-01
  2.043834e-01
  2.130894e-01
  1.822603e-01
  1.444973e-01
  1.821763e-01
  4.052361e-01
  6.672269e-01
  7.898457e-01
  8.414885e-01
  8.792235e-01
  9.143313e-01
  9.398881e-01
  9.555955e-01
  9.656166e-01
  9.728668e-01
  9.783006e-01
  9.815060e-01
  9.806234e-01
  9.648850e-01
  8.822322e-01
  5.768459e-01
  1.653797e-01
  4.999273e-02
  2.424807e-02
  1.799618e-02
  1.981849e-02
  3.738497e-02
  1.023119e-01
  2.901811e-01
  6.314485e-01
  8.595352e-01
  9.514639e-01
  9.845248e-01
  9.960808e-01
  9.959326e-01
  9.642363e-01
  7.989206e-01
  2.992184e-01
  1.012257e-01
  8.183067e-02
  1.755155e-01
  5.162576e-01
  8.175614e-01
  8.388331e-01
  5.954009e-01
  1.998060e-01
  7.707630e-02
  7.827366e-02
  2.413520e-01
  7.666416e-01
  9.574719e-01
  9.952369e-01
  9.999000e-01
  9.975027e-01
  9.743421e-01
  8.505127e-01
  3.779950e-01
  8.502837e-02
  2.214135e-02
  1.430540e-02
  2.013237e-02
  1.750157e-02
  2.790110e-02
  4.188200e-02
  5.323112e-02
  5.826234e-02
  6.290832e-02
  9.781564e-02
  2.756335e-01
  7.214094e-01
  9.144190e-01
  9.636536e-01
  9.752447e-01
  9.801003e-01
  9.844175e-01
  9.882147e-01
  9.913802e-01
  9.942341e-01
  9.968836e-01
  9.990202e-01
  9.999000e-01
  9.999000e-01
  9.950920e-01
  9.456317e-01
  7.093624e-01
  2.108447e-01
  5.935377e-02
  2.666203e-02
  1.821820e-02
  1.553315e-02
  1.779265e-02
  3.308931e-02
  8.719198e-02
  2.397470e-01
  5.369128e-01
  7.913929e-01
  9.093910e-01
  9.518947e-01
  9.517874e-01
  8.882508e-01
  6.458956e-01
  2.174655e-01
  8.037437e-02
  6.386179e-02
  1.044507e-01
  2.420616e-01
  4.339765e-01
  4.522616e-01
  2.729505e-01
  1.102311e-01
  5.640358e-02
  6.480672e-02
  2.015986e-01
  6.948184e-01
  9.369911e-01
  9.899230e-01
  9.986157e-01
  9.969563e-01
  9.803968e-01
  8.946256e-01
  5.328761e-01
  1.257498e-01
  2.644283e-02
  1.054905e-02
  1.159137e-02
  1.027943e-02
  1.430056e-02
  1.883671e-02
  2.326811e-02
  2.856930e-02
  4.241054e-02
  1.024278e-01
  3.578491e-01
  8.415781e-01
  9.758065e-01
  9.992162e-01
  9.999000e-01
  9.977740e-01
  9.954443e-01
  9.937887e-01
  9.932930e-01
  9.940344e-01
  9.956181e-01
  9.973946e-01
  9.985569e-01
  9.976756e-01
  9.862142e-01
  9.203317e-01
  6.473455e-01
  1.881108e-01
  5.556137e-02
  2.690693e-02
  1.927104e-02
  1.603611e-02
  1.480013e-02
  1.712693e-02
  2.935612e-02
  6.851233e-02
  1.686151e-01
  3.607001e-01
  6.062164e-01
  7.364599e-01
  7.383726e-01
  5.962273e-01
  3.072978e-01
  1.107790e-01
  5.525619e-02
  4.844066e-02
  6.167961e-02
  9.723494e-02
  1.435374e-01
  1.478260e-01
  1.029448e-01
  6.038547e-02
  4.160430e-02
  4.859730e-02
  1.381583e-01
  5.177543e-01
  8.810504e-01
  9.766628e-01
  9.952757e-01
  9.961318e-01
  9.853251e-01
  9.316428e-01
  6.934356e-01
  2.023355e-01
  4.203992e-02
  1.083123e-02
  7.695356e-03
  7.545301e-03
  9.894758e-03
  1.296583e-02
  1.661739e-02
  2.228728e-02
  3.722254e-02
  9.723996e-02
  3.481202e-01
  8.365961e-01
  9.752546e-01
  9.992495e-01
  9.986860e-01
  9.927036e-01
  9.844236e-01
  9.755153e-01
  9.690382e-01
  9.665658e-01
  9.671905e-01
  9.687728e-01
  9.682220e-01
  9.585871e-01
  9.167836e-01
  7.692132e-01
  3.969750e-01
  1.168184e-01
  4.272718e-02
  2.572034e-02
  2.097781e-02
  1.938849e-02
  1.926194e-02
  2.012766e-02
  2.311369e-02
  3.224534e-02
  5.571575e-02
  1.038787e-01
  1.747888e-01
  2.263447e-01
  2.270173e-01
  1.740733e-01
  9.867719e-02
  5.366757e-02
  4.011531e-02
  3.948433e-02
  4.454267e-02
  5.438582e-02
  6.601982e-02
  6.945624e-02
  6.081851e-02
  4.794966e-02
  3.757392e-02
  3.762259e-02
  8.180896e-02
  3.016241e-01
  7.606189e-01
  9.446205e-01
  9.873979e-01
  9.944323e-01
  9.889203e-01
  9.579455e-01
  8.155949e-01
  3.647578e-01
  9.082865e-02
  2.127840e-02
  8.030539e-03
  9.240330e-03
  8.477866e-03
  1.043289e-02
  1.366201e-02
  1.880502e-02
  3.055831e-02
  7.224003e-02
  2.435664e-01
  6.931251e-01
  9.057789e-01
  9.581391e-01
  9.612437e-01
  9.449887e-01
  9.127177e-01
  8.696258e-01
  8.343615e-01
  8.168570e-01
  8.129916e-01
  8.132842e-01
  8.053314e-01
  7.656584e-01
  6.395464e-01
  3.802563e-01
  1.549135e-01
  5.876727e-02
  3.216414e-02
  2.585256e-02
  2.632660e-02
  3.245409e-02
  4.337085e-02
  5.374098e-02
  6.097668e-02
  6.659270e-02
  7.336775e-02
  8.283572e-02
  9.188653e-02
  9.087756e-02
  7.752042e-02
  5.951945e-02
  4.358854e-02
  3.527654e-02
  3.343852e-02
  3.477746e-02
  3.823541e-02
  4.516712e-02
  5.843576e-02
  7.588555e-02
  8.411891e-02
  7.561040e-02
  5.574090e-02
  3.983050e-02
  5.121930e-02
  1.558791e-01
  5.225092e-01
  8.598826e-01
  9.647218e-01
  9.889080e-01
  9.905476e-01
  9.760344e-01
  9.078810e-01
  6.457339e-01
  2.345091e-01
  6.497053e-02
  1.940681e-02
  2.494325e-02
  1.217868e-02
  9.923845e-03
  1.147893e-02
  1.526677e-02
  2.272829e-02
  4.311898e-02
  1.151089e-01
  3.369810e-01
  6.236593e-01
  7.528721e-01
  7.672700e-01
  7.140676e-01
  5.933825e-01
  4.346387e-01
  3.253667e-01
  2.801404e-01
  2.696831e-01
  2.699453e-01
  2.636860e-01
  2.369275e-01
  1.815410e-01
  1.086739e-01
  5.689884e-02
  3.478172e-02
  2.870073e-02
  3.116387e-02
  4.701111e-02
  9.093546e-02
  1.621706e-01
  2.241485e-01
  2.613090e-01
  2.794627e-01
  2.848282e-01
  2.759439e-01
  2.429527e-01
  1.775676e-01
  1.002639e-01
  5.331520e-02
  3.568772e-02
  3.093539e-02
  3.075879e-02
  3.265218e-02
  3.816450e-02
  5.616219e-02
  1.093220e-01
  2.003060e-01
  2.581481e-01
  2.405560e-01
  1.606144e-01
  7.804051e-02
  4.603329e-02
  7.629307e-02
  2.506251e-01
  6.509289e-01
  8.935898e-01
  9.686721e-01
  9.868661e-01
  9.852523e-01
  9.600146e-01
  8.560324e-01
  5.554683e-01
  2.157099e-01
  7.076223e-02
  9.533935e-02
  3.617288e-02
  1.688867e-02
  1.204660e-02
  1.285718e-02
  1.681815e-02
  2.523291e-02
  4.626390e-02
  9.836675e-02
  1.734581e-01
  2.197065e-01
  2.212433e-01
  1.900562e-01
  1.428444e-01
  9.837508e-02
  7.284086e-02
  6.491210e-02
  6.643517e-02
  7.034150e-02
  7.124376e-02
  6.614419e-02
  5.513372e-02
  4.186246e-02
  3.259304e-02
  2.905999e-02
  3.158656e-02
  4.934531e-02
  1.205667e-01
  3.196045e-01
  5.952397e-01
  7.522576e-01
  8.074803e-01
  8.239594e-01
  8.255152e-01
  8.115525e-01
  7.563130e-01
  5.926163e-01
  3.077141e-01
  1.128050e-01
  4.798770e-02
  3.250350e-02
  3.018410e-02
  3.275792e-02
  4.583721e-02
  1.034372e-01
  3.106411e-01
  6.281640e-01
  7.680854e-01
  7.425920e-01
  5.387606e-01
  2.273069e-01
  7.488009e-02
  4.732931e-02
  1.002919e-01
  3.107320e-01
  6.857631e-01
  8.955197e-01
  9.653233e-01
  9.837235e-01
  9.810176e-01
  9.506672e-01
  8.438532e-01
  5.807150e-01
  2.574586e-01
  3.434224e-01
  1.425997e-01
  5.766374e-02
  2.686785e-02
  1.722347e-02
  1.594110e-02
  1.841912e-02
  2.414175e-02
  3.453908e-02
  4.729663e-02
  5.405559e-02
  5.176811e-02
  4.326163e-02
  3.306662e-02
  2.564386e-02
  2.427085e-02
  2.937669e-02
  3.869562e-02
  4.692412e-02
  4.840921e-02
  4.322695e-02
  3.643582e-02
  3.157288e-02
  2.920233e-02
  3.004387e-02
  4.014167e-02
  9.096274e-02
  2.997785e-01
  7.060437e-01
  8.975791e-01
  9.547598e-01
  9.696405e-01
  9.731091e-01
  9.732044e-01
  9.697012e-01
  9.536136e-01
  8.904371e-01
  6.788679e-01
  2.660029e-01
  8.188136e-02
  3.875505e-02
  3.110648e-02
  3.463788e-02
  6.072119e-02
  1.889436e-01
  6.220643e-01
  8.921226e-01
  9.607399e-01
  9.523727e-01
  8.507702e-01
  5.135705e-01
  1.432946e-01
  4.749138e-02
  4.432333e-02
  1.089630e-01
  3.145948e-01
  6.677038e-01
  8.798677e-01
  9.575486e-01
  9.805009e-01
  9.799520e-01
  9.540775e-01
  8.705320e-01
  6.652173e-01
  7.594342e-01
  4.854552e-01
  2.339260e-01
  1.082519e-01
  5.520134e-02
  3.414798e-02
  2.530577e-02
  2.227616e-02
  2.200104e-02
  2.259896e-02
  2.208993e-02
  1.992585e-02
  1.707356e-02
  1.523219e-02
  1.679813e-02
  2.581683e-02
  4.816175e-02
  8.207665e-02
  1.084172e-01
  1.043134e-01
  7.491649e-02
  4.752953e-02
  3.506742e-02
  3.101798e-02
  3.288101e-02
  5.117815e-02
  1.466765e-01
  5.216198e-01
  8.820489e-01
  9.774914e-01
  9.957756e-01
  9.982426e-01
  9.983270e-01
  9.982560e-01
  9.979521e-01
  9.947902e-01
  9.732913e-01
  8.632960e-01
  4.658366e-01
  1.300397e-01
  4.765256e-02
  3.268710e-02
  3.642911e-02
  7.242585e-02
  2.516404e-01
  7.709887e-01
  9.619678e-01
  9.999000e-01
  9.981116e-01
  9.474053e-01
  7.140187e-01
  2.091701e-01
  5.654780e-02
  2.901903e-02
  4.001644e-02
  1.012459e-01
  2.808780e-01
  6.129307e-01
  8.474004e-01
  9.438205e-01
  9.757815e-01
  9.803909e-01
  9.634878e-01
  9.059727e-01
  9.352384e-01
  8.482761e-01
  6.782984e-01
  4.260674e-01
  2.411975e-01
  1.417499e-01
  8.182801e-02
  4.831343e-02
  2.996108e-02
  2.156282e-02
  1.771289e-02
  1.521746e-02
  1.367717e-02
  1.469004e-02
  2.360819e-02
  5.691244e-02
  1.483411e-01
  2.870759e-01
  3.833421e-01
  3.519529e-01
  2.142695e-01
  9.019836e-02
  4.596675e-02
  3.417601e-02
  3.484654e-02
  5.659575e-02
  1.733119e-01
  6.135023e-01
  9.225710e-01
  9.912576e-01
  9.999000e-01
  9.999000e-01
  9.999000e-01
  9.999000e-01
  9.999000e-01
  9.999000e-01
  9.901665e-01
  9.142108e-01
  5.761683e-01
  1.599845e-01
  5.320964e-02
  3.362060e-02
  3.651822e-02
  7.257997e-02
  2.530693e-01
  7.739379e-01
  9.628479e-01
  9.999000e-01
  9.999000e-01
  9.568388e-01
  7.434650e-01
  2.239217e-01
  5.985879e-02
  2.625383e-02
  2.221263e-02
  3.496806e-02
  8.498538e-02
  2.283777e-01
  5.191667e-01
  7.886282e-01
  9.162181e-01
  9.633157e-01
  9.766749e-01
  9.696145e-01
  9.675475e-01
  9.554988e-01
  9.180455e-01
  8.443060e-01
  7.321664e-01
  5.523799e-01
  3.359234e-01
  1.787945e-01
  7.888500e-02
  3.521908e-02
  2.087148e-02
  1.573912e-02
  1.418480e-02
  1.864014e-02
  4.550027e-02
  1.574379e-01
  4.681906e-01
  7.618561e-01
  8.564303e-01
  8.161681e-01
  5.747952e-01
  1.900269e-01
  6.540137e-02
  3.762424e-02
  3.471865e-02
  5.181348e-02
  1.465286e-01
  5.205830e-01
  8.823150e-01
  9.780770e-01
  9.965302e-01
  9.992979e-01
  9.997122e-01
  9.998988e-01
  9.999000e-01
  9.984269e-01
  9.818868e-01
  8.877546e-01
  5.162219e-01
  1.439246e-01
  5.068341e-02
  3.352455e-02
  3.540109e-02
  6.178515e-02
  1.935835e-01
  6.352035e-01
  8.990930e-01
  9.664765e-01
  9.664530e-01
  8.948953e-01
  6.125976e-01
  1.781066e-01
  5.344787e-02
  2.637499e-02
  1.974632e-02
  1.979100e-02
  2.980875e-02
  6.614405e-02
  1.673444e-01
  3.859642e-01
  6.792778e-01
  8.501826e-01
  9.289068e-01
  9.599416e-01
  9.189151e-01
  9.552161e-01
  9.670078e-01
  9.617768e-01
  9.417999e-01
  8.966711e-01
  7.994163e-01
  5.802937e-01
  2.521365e-01
  7.872898e-02
  3.064432e-02
  1.800473e-02
  1.574411e-02
  2.722712e-02
  9.398689e-02
  3.633091e-01
  7.840035e-01
  9.450488e-01
  9.812505e-01
  9.556328e-01
  7.836886e-01
  2.782496e-01
  8.153978e-02
  3.946089e-02
  3.303217e-02
  4.162693e-02
  9.201519e-02
  3.021054e-01
  7.123645e-01
  9.037074e-01
  9.599348e-01
  9.750813e-01
  9.794222e-01
  9.804728e-01
  9.786331e-01
  9.681047e-01
  9.219658e-01
  7.467283e-01
  3.239902e-01
  9.738031e-02
  4.406650e-02
  3.577806e-02
  3.855220e-02
  5.227608e-02
  1.124455e-01
  3.314065e-01
  6.529727e-01
  7.934305e-01
  7.935284e-01
  6.496241e-01
  3.197687e-01
  1.044552e-01
  4.478019e-02
  2.912653e-02
  2.277316e-02
  1.918702e-02
  1.874734e-02
  2.510737e-02
  4.790218e-02
  1.081408e-01
  2.395105e-01
  4.655976e-01
  7.034494e-01
  8.418489e-01
  6.812555e-01
  8.480015e-01
  9.364830e-01
  9.736030e-01
  9.857448e-01
  9.839965e-01
  9.615334e-01
  8.699383e-01
  5.640476e-01
  1.622075e-01
  4.732479e-02
  2.143173e-02
  1.873193e-02
  4.428216e-02
  1.823695e-01
  6.290281e-01
  9.137933e-01
  9.876326e-01
  9.999000e-01
  9.753670e-01
  8.215393e-01
  2.970929e-01
  8.311243e-02
  3.860057e-02
  3.134634e-02
  3.392369e-02
  5.202439e-02
  1.259228e-01
  3.369602e-01
  6.236233e-01
  7.772584e-01
  8.326308e-01
  8.519742e-01
  8.562001e-01
  8.462826e-01
  8.061019e-01
  6.800613e-01
  3.944670e-01
  1.458979e-01
  6.017511e-02
  4.591497e-02
  5.579373e-02
  6.940949e-02
  7.687582e-02
  8.628456e-02
  1.291035e-01
  2.163446e-01
  2.811027e-01
  2.813645e-01
  2.142709e-01
  1.204288e-01
  6.966709e-02
  5.362408e-02
  4.431878e-02
  3.412457e-02
  2.525823e-02
  1.986916e-02
  1.818414e-02
  2.114913e-02
  3.274192e-02
  6.171893e-02
  1.230295e-01
  2.351938e-01
  4.311443e-01
  2.359812e-01
  4.891635e-01
  7.725589e-01
  9.218028e-01
  9.784013e-01
  9.975214e-01
  9.970226e-01
  9.543580e-01
  7.433872e-01
  2.308568e-01
  6.143321e-02
  2.484019e-02
  2.532088e-02
  7.906259e-02
  3.258699e-01
  7.968533e-01
  9.592428e-01
  9.946972e-01
  9.955982e-01
  9.577891e-01
  7.668269e-01
  2.511125e-01
  7.154058e-02
  3.659392e-02
  3.147151e-02
  3.169209e-02
  3.578642e-02
  5.281846e-02
  1.011295e-01
  1.817687e-01
  2.564820e-01
  3.096132e-01
  3.412431e-01
  3.501789e-01
  3.328033e-01
  2.860954e-01
  2.103336e-01
  1.201936e-01
  6.283395e-02
  5.201380e-02
  8.323685e-02
  1.599175e-01
  2.304563e-01
  2.424428e-01
  1.912078e-01
  1.196706e-01
  8.969626e-02
  8.778191e-02
  8.716087e-02
  8.323730e-02
  8.987184e-02
  1.143191e-01
  1.322900e-01
  1.181618e-01
  8.098420e-02
  4.660326e-02
  2.782107e-02
  2.032360e-02
  1.784805e-02
  1.830419e-02
  2.240430e-02
  3.309868e-02
  5.689209e-02
  1.115438e-01
  6.032721e-02
  1.517720e-01
  3.832084e-01
  7.227100e-01
  9.045377e-01
  9.692914e-01
  9.830922e-01
  9.434837e-01
  7.311929e-01
  2.289975e-01
  6.227827e-02
  2.819641e-02
  4.267875e-02
  1.581212e-01
  5.577473e-01
  8.903566e-01
  9.762840e-01
  9.916771e-01
  9.792610e-01
  9.016445e-01
  6.006499e-01
  1.725554e-01
  5.685417e-02
  3.864148e-02
  3.795228e-02
  3.699975e-02
  3.468305e-02
  3.496095e-02
  4.149125e-02
  5.446782e-02
  6.822003e-02
  7.925289e-02
  8.652960e-02
  8.910298e-02
  8.583857e-02
  7.627512e-02
  6.165407e-02
  4.705930e-02
  4.511311e-02
  8.053902e-02
  2.295751e-01
  5.355421e-01
  7.334634e-01
  7.521532e-01
  6.019157e-01
  2.924986e-01
  1.047782e-01
  5.632561e-02
  5.421740e-02
  8.638369e-02
  1.951957e-01
  3.598141e-01
  4.636688e-01
  4.234867e-01
  2.762537e-01
  1.273570e-01
  5.119572e-02
  2.733469e-02
  2.044118e-02
  1.808761e-02
  1.714222e-02
  1.728753e-02
  1.984548e-02
  2.957152e-02
  2.131283e-02
  4.384471e-02
  1.192306e-01
  3.184091e-01
  6.312913e-01
  8.095924e-01
  8.561682e-01
  7.879922e-01
  5.037810e-01
  1.541884e-01
  5.061103e-02
  3.690793e-02
  9.081936e-02
  3.266249e-01
  7.676651e-01
  9.432619e-01
  9.824793e-01
  9.823400e-01
  9.422436e-01
  7.690593e-01
  3.408312e-01
  1.004790e-01
  5.437729e-02
  6.227938e-02
  7.186446e-02
  6.503717e-02
  4.819616e-02
  3.665350e-02
  3.170371e-02
  3.057963e-02
  3.115857e-02
  3.245867e-02
  3.399763e-02
  3.515867e-02
  3.531285e-02
  3.425155e-02
  3.273640e-02
  3.406505e-02
  5.164577e-02
  1.447726e-01
  4.999209e-01
  8.468317e-01
  9.509082e-01
  9.573465e-01
  8.803384e-01
  5.909425e-01
  1.790759e-01
  6.617174e-02
  6.479265e-02
  1.632877e-01
  5.095911e-01
  7.994560e-01
  8.848244e-01
  8.652751e-01
  7.233631e-01
  3.714888e-01
  1.119003e-01
  4.129269e-02
  2.549141e-02
  2.171561e-02
  2.029764e-02
  1.891753e-02
  1.725200e-02
  1.661420e-02
  1.992429e-02
  2.141033e-02
  3.836413e-02
  9.008836e-02
  1.934132e-01
  3.083418e-01
  3.676453e-01
  3.138068e-01
  1.788423e-01
  7.325561e-02
  4.263009e-02
  6.972068e-02
  2.231604e-01
  6.193502e-01
  8.941149e-01
  9.698611e-01
  9.822529e-01
  9.628438e-01
  8.604791e-01
  5.184031e-01
  1.659390e-01
  7.198141e-02
  9.716343e-02
  1.816006e-01
  2.307118e-01
  1.910241e-01
  1.027460e-01
  5.279030e-02
  3.464235e-02
  2.831863e-02
  2.649508e-02
  2.739510e-02
  3.013099e-02
  3.281793e-02
  3.370118e-02
  3.247437e-02
  3.100806e-02
  3.440827e-02
  6.089270e-02
  1.975333e-01
  6.747012e-01
  9.383856e-01
  9.977729e-01
  9.999000e-01
  9.546509e-01
  7.401252e-01
  2.342700e-01
  7.879069e-02
  8.295234e-02