# vtk DataFile Version 2.0
time_10.vtk
ASCII
DATASET STRUCTURED_GRID
DIMENSIONS    64    64     1
POINTS    4096 float
  0.000000e+00   0.000000e+00   0.000000e+00
  0.000000e+00   1.000000e+00   0.000000e+00
  0.000000e+00   2.000000e+00   0.000000e+00
  0.000000e+00   3.000000e+00   0.000000e+00
  0.000000e+00   4.000000e+00   0.000000e+00
  0.000000e+00   5.000000e+00   0.000000e+00
  0.000000e+00   6.000000e+00   0.000000e+00
  0.000000e+00   7.000000e+00   0.000000e+00
  0.000000e+00   8.000000e+00   0.000000e+00
  0.000000e+00   9.000000e+00   0.000000e+00
  0.000000e+00   1.000000e+01   0.000000e+00
  0.000000e+00   1.100000e+01   0.000000e+00
  0.000000e+00   1.200000e+01   0.000000e+00
  0.000000e+00   1.300000e+01   0.000000e+00
  0.000000e+00   1.400000e+01   0.000000e+00
  0.000000e+00   1.500000e+01   0.000000e+00
  0.000000e+00   1.600000e+01   0.000000e+00
  0.000000e+00   1.700000e+01   0.000000e+00
  0.000000e+00   1.800000e+01   0.000000e+00
  0.000000e+00   1.900000e+01   0.000000e+00
  0.000000e+00   2.000000e+01   0.000000e+00
  0.000000e+00   2.100000e+01   0.000000e+00
  0.000000e+00   2.200000e+01   0.000000e+00
  0.000000e+00   2.300000e+01   0.000000e+00
  0.000000e+00   2.400000e+01   0.000000e+00
  0.000000e+00   2.500000e+01   0.000000e+00
  0.000000e+00   2.600000e+01   0.000000e+00
  0.000000e+00   2.700000e+01   0.000000e+00
  0.000000e+00   2.800000e+01   0.000000e+00
  0.000000e+00   2.900000e+01   0.000000e+00
  0.000000e+00   3.000000e+01   0.000000e+00
  0.000000e+00   3.100000e+01   0.000000e+00
  0.000000e+00   3.200000e+01   0.000000e+00
  0.000000e+00   3.300000e+01   0.000000e+00
  0.000000e+00   3.400000e+01   0.000000e+00
  0.000000e+00   3.500000e+01   0.000000e+00
  0.000000e+00   3.600000e+01   0.000000e+00
  0.000000e+00   3.700000e+01   0.000000e+00
  0.000000e+00   3.800000e+01   0.000000e+00
  0.000000e+00   3.900000e+01   0.000000e+00
  0.000000e+00   4.000000e+01   0.000000e+00
  0.000000e+00   4.100000e+01   0.000000e+00
  0.000000e+00   4.200000e+01   0.000000e+00
  0.000000e+00   4.300000e+01   0.000000e+00
  0.000000e+00   4.400000e+01   0.000000e+00
  0.000000e+00   4.500000e+01   0.000000e+00
  0.000000e+00   4.600000e+01   0.000000e+00
  0.000000e+00   4.700000e+01   0.000000e+00
  0.000000e+00   4.800000e+01   0.000000e+00
  0.000000e+00   4.900000e+01   0.000000e+00
  0.000000e+00   5.000000e+01   0.000000e+00
  0.000000e+00   5.100000e+01   0.000000e+00
  0.000000e+00   5.200000e+01   0.000000e+00
  0.000000e+00   5.300000e+01   0.000000e+00
  0.000000e+00   5.400000e+01   0.000000e+00
  0.000000e+00   5.500000e+01   0.000000e+00
  0.000000e+00   5.600000e+01   0.000000e+00
  0.000000e+00   5.700000e+01   0.000000e+00
  0.000000e+00   5.800000e+01   0.000000e+00
  0.000000e+00   5.900000e+01   0.000000e+00
  0.000000e+00   6.000000e+01   0.000000e+00
  0.000000e+00   6.100000e+01   0.000000e+00
  0.000000e+00   6.200000e+01   0.000000e+00
  0.000000e+00   6.300000e+01   0.000000e+00
  1.000000e+00   0.000000e+00   0.000000e+00
  1.000000e+00   1.000000e+00   0.000000e+00
  1.000000e+00   2.000000e+00   0.000000e+00
  1.000000e+00   3.000000e+00   0.000000e+00
  1.000000e+00   4.000000e+00   0.000000e+00
  1.000000e+00   5.000000e+00   0.000000e+00
  1.000000e+00   6.000000e+00   0.000000e+00
  1.000000e+00   7.000000e+00   0.000000e+00
  1.000000e+00   8.000000e+00   0.000000e+00
  1.000000e+00   9.000000e+00   0.000000e+00
  1.000000e+00   1.000000e+01   0.000000e+00
  1.000000e+00   1.100000e+01   0.000000e+00
  1.000000e+00   1.200000e+01   0.000000e+00
  1.000000e+00   1.300000e+01   0.000000e+00
  1.000000e+00   1.400000e+01   0.000000e+00
  1.000000e+00   1.500000e+01   0.000000e+00
  1.000000e+00   1.600000e+01   0.000000e+00
  1.000000e+00   1.700000e+01   0.000000e+00
  1.000000e+00   1.800000e+01   0.000000e+00
  1.000000e+00   1.900000e+01   0.000000e+00
  1.000000e+00   2.000000e+01   0.000000e+00
  1.000000e+00   2.100000e+01   0.000000e+00
  1.000000e+00   2.200000e+01   0.000000e+00
  1.000000e+00   2.300000e+01   0.000000e+00
  1.000000e+00   2.400000e+01   0.000000e+00
  1.000000e+00   2.500000e+01   0.000000e+00
  1.000000e+00   2.600000e+01   0.000000e+00
  1.000000e+00   2.700000e+01   0.000000e+00
  1.000000e+00   2.800000e+01   0.000000e+00
  1.000000e+00   2.900000e+01   0.000000e+00
  1.000000e+00   3.000000e+01   0.000000e+00
  1.000000e+00   3.100000e+01   0.000000e+00
  1.000000e+00   3.200000e+01   0.000000e+00
  1.000000e+00   3.300000e+01   0.000000e+00
  1.000000e+00   3.400000e+01   0.000000e+00
  1.000000e+00   3.500000e+01   0.000000e+00
  1.000000e+00   3.600000e+01   0.000000e+00
  1.000000e+00   3.700000e+01   0.000000e+00
  1.000000e+00   3.800000e+01   0.000000e+00
  1.000000e+00   3.900000e+01   0.000000e+00
  1.000000e+00   4.000000e+01   0.000000e+00
  1.000000e+00   4.100000e+01   0.000000e+00
  1.000000e+00   4.200000e+01   0.000000e+00
  1.000000e+00   4.300000e+01   0.000000e+00
  1.000000e+00   4.400000e+01   0.000000e+00
  1.000000e+00   4.500000e+01   0.000000e+00
  1.000000e+00   4.600000e+01   0.000000e+00
  1.000000e+00   4.700000e+01   0.000000e+00
  1.000000e+00   4.800000e+01   0.000000e+00
  1.000000e+00   4.900000e+01   0.000000e+00
  1.000000e+00   5.000000e+01   0.000000e+00
  1.000000e+00   5.100000e+01   0.000000e+00
  1.000000e+00   5.200000e+01   0.000000e+00
  1.000000e+00   5.300000e+01   0.000000e+00
  1.000000e+00   5.400000e+01   0.000000e+00
  1.000000e+00   5.500000e+01   0.000000e+00
  1.000000e+00   5.600000e+01   0.000000e+00
  1.000000e+00   5.700000e+01   0.000000e+00
  1.000000e+00   5.800000e+01   0.000000e+00
  1.000000e+00   5.900000e+01   0.000000e+00
  1.000000e+00   6.000000e+01   0.000000e+00
  1.000000e+00   6.100000e+01   0.000000e+00
  1.000000e+00   6.200000e+01   0.000000e+00
  1.000000e+00   6.300000e+01   0.000000e+00
  2.000000e+00   0.000000e+00   0.000000e+00
  2.000000e+00   1.000000e+00   0.000000e+00
  2.000000e+00   2.000000e+00   0.000000e+00
  2.000000e+00   3.000000e+00   0.000000e+00
  2.000000e+00   4.000000e+00   0.000000e+00
  2.000000e+00   5.000000e+00   0.000000e+00
  2.000000e+00   6.000000e+00   0.000000e+00
  2.000000e+00   7.000000e+00   0.000000e+00
  2.000000e+00   8.000000e+00   0.000000e+00
  2.000000e+00   9.000000e+00   0.000000e+00
  2.000000e+00   1.000000e+01   0.000000e+00
  2.000000e+00   1.100000e+01   0.000000e+00
  2.000000e+00   1.200000e+01   0.000000e+00
  2.000000e+00   1.300000e+01   0.000000e+00
  2.000000e+00   1.400000e+01   0.000000e+00
  2.000000e+00   1.500000e+01   0.000000e+00
  2.000000e+00   1.600000e+01   0.000000e+00
  2.000000e+00   1.700000e+01   0.000000e+00
  2.000000e+00   1.800000e+01   0.000000e+00
  2.000000e+00   1.900000e+01   0.000000e+00
  2.000000e+00   2.000000e+01   0.000000e+00
  2.000000e+00   2.100000e+01   0.000000e+00
  2.000000e+00   2.200000e+01   0.000000e+00
  2.000000e+00   2.300000e+01   0.000000e+00
  2.000000e+00   2.400000e+01   0.000000e+00
  2.000000e+00   2.500000e+01   0.000000e+00
  2.000000e+00   2.600000e+01   0.000000e+00
  2.000000e+00   2.700000e+01   0.000000e+00
  2.000000e+00   2.800000e+01   0.000000e+00
  2.000000e+00   2.900000e+01   0.000000e+00
  2.000000e+00   3.000000e+01   0.000000e+00
  2.000000e+00   3.100000e+01   0.000000e+00
  2.000000e+00   3.200000e+01   0.000000e+00
  2.000000e+00   3.300000e+01   0.000000e+00
  2.000000e+00   3.400000e+01   0.000000e+00
  2.000000e+00   3.500000e+01   0.000000e+00
  2.000000e+00   3.600000e+01   0.000000e+00
  2.000000e+00   3.700000e+01   0.000000e+00
  2.000000e+00   3.800000e+01   0.000000e+00
  2.000000e+00   3.900000e+01   0.000000e+00
  2.000000e+00   4.000000e+01   0.000000e+00
  2.000000e+00   4.100000e+01   0.000000e+00
  2.000000e+00   4.200000e+01   0.000000e+00
  2.000000e+00   4.300000e+01   0.000000e+00
  2.000000e+00   4.400000e+01   0.000000e+00
  2.000000e+00   4.500000e+01   0.000000e+00
  2.000000e+00   4.600000e+01   0.000000e+00
  2.000000e+00   4.700000e+01   0.000000e+00
  2.000000e+00   4.800000e+01   0.000000e+00
  2.000000e+00   4.900000e+01   0.000000e+00
  2.000000e+00   5.000000e+01   0.000000e+00
  2.000000e+00   5.100000e+01   0.000000e+00
  2.000000e+00   5.200000e+01   0.000000e+00
  2.000000e+00   5.300000e+01   0.000000e+00
  2.000000e+00   5.400000e+01   0.000000e+00
  2.000000e+00   5.500000e+01   0.000000e+00
  2.000000e+00   5.600000e+01   0.000000e+00
  2.000000e+00   5.700000e+01   0.000000e+00
  2.000000e+00   5.800000e+01   0.000000e+00
  2.000000e+00   5.900000e+01   0.000000e+00
  2.000000e+00   6.000000e+01   0.000000e+00
  2.000000e+00   6.100000e+01   0.000000e+00
  2.000000e+00   6.200000e+01   0.000000e+00
  2.000000e+00   6.300000e+01   0.000000e+00
  3.000000e+00   0.000000e+00   0.000000e+00
  3.000000e+00   1.000000e+00   0.000000e+00
  3.000000e+00   2.000000e+00   0.000000e+00
  3.000000e+00   3.000000e+00   0.000000e+00
  3.000000e+00   4.000000e+00   0.000000e+00
  3.000000e+00   5.000000e+00   0.000000e+00
  3.000000e+00   6.000000e+00   0.000000e+00
  3.000000e+00   7.000000e+00   0.000000e+00
  3.000000e+00   8.000000e+00   0.000000e+00
  3.000000e+00   9.000000e+00   0.000000e+00
  3.000000e+00   1.000000e+01   0.000000e+00
  3.000000e+00   1.100000e+01   0.000000e+00
  3.000000e+00   1.200000e+01   0.000000e+00
  3.000000e+00   1.300000e+01   0.000000e+00
  3.000000e+00   1.400000e+01   0.000000e+00
  3.000000e+00   1.500000e+01   0.000000e+00
  3.000000e+00   1.600000e+01   0.000000e+00
  3.000000e+00   1.700000e+01   0.000000e+00
  3.000000e+00   1.800000e+01   0.000000e+00
  3.000000e+00   1.900000e+01   0.000000e+00
  3.000000e+00   2.000000e+01   0.000000e+00
  3.000000e+00   2.100000e+01   0.000000e+00
  3.000000e+00   2.200000e+01   0.000000e+00
  3.000000e+00   2.300000e+01   0.000000e+00
  3.000000e+00   2.400000e+01   0.000000e+00
  3.000000e+00   2.500000e+01   0.000000e+00
  3.000000e+00   2.600000e+01   0.000000e+00
[...]
POINT_DATA  4096
SCALARS CON float 1
LOOKUP_TABLE default
  1.476366e-01
  2.384797e-01
  6.204153e-01
  8.755166e-01
  9.456798e-01
  9.343247e-01
  8.338606e-01
  5.658462e-01
  2.744680e-01
  2.371302e-01
  3.536269e-01
  4.277474e-01
  3.219784e-01
  1.507762e-01
  7.855381e-02
  6.885133e-02
  8.784118e-02
  1.077172e-01
  1.065589e-01
  8.361544e-02
  5.862313e-02
  4.841645e-02
  5.165541e-02
  6.508051e-02
  8.874255e-02
  1.148098e-01
  1.453448e-01
  2.251871e-01
  4.685263e-01
  7.984011e-01
  9.278959e-01
  9.575423e-01
  9.454623e-01
  8.821842e-01
  7.053399e-01
  3.724588e-01
  1.466485e-01
  7.350267e-02
  6.578075e-02
  7.224973e-02
  7.085395e-02
  6.041816e-02
  6.264773e-02
  1.225586e-01
  3.367675e-01
  6.128722e-01
  7.076040e-01
  6.069785e-01
  3.289080e-01
  1.190932e-01
  5.642672e-02
  4.842462e-02
  9.683046e-02
  3.465177e-01
  8.261301e-01
  9.537717e-01
  9.237405e-01
  6.770533e-01
  2.152696e-01
  9.418304e-02
  1.038841e-01
  1.646158e-01
  2.090029e-01
  1.786365e-01
  2.356841e-01
  1.819479e-01
  3.281241e-01
  5.984325e-01
  7.308494e-01
  6.956281e-01
  4.851589e-01
  2.241306e-01
  1.003416e-01
  8.594796e-02
  1.193979e-01
  1.423547e-01
  1.159279e-01
  7.340487e-02
  5.480593e-02
  5.969589e-02
  7.927171e-02
  9.459508e-02
  8.975824e-02
  6.915941e-02
  5.335403e-02
  5.406160e-02
  7.252536e-02
  9.772359e-02
  1.110358e-01
  1.024126e-01
  8.638172e-02
  1.040546e-01
  2.406260e-01
  6.031235e-01
  8.599666e-01
  9.482145e-01
  9.708365e-01
  9.616178e-01
  9.052945e-01
  7.312663e-01
  3.929523e-01
  1.586965e-01
  7.117764e-02
  4.471934e-02
  3.824956e-02
  4.169761e-02
  7.319575e-02
  2.253014e-01
  6.735640e-01
  9.001102e-01
  9.462480e-01
  8.947352e-01
  6.561283e-01
  2.109030e-01
  6.607169e-02
  4.495141e-02
  1.073184e-01
  4.219969e-01
  8.633831e-01
  9.612526e-01
  9.143954e-01
  6.223413e-01
  1.780985e-01
  7.489048e-02
  9.847161e-02
  2.142772e-01
  3.487000e-01
  3.436159e-01
  5.558727e-01
  2.305616e-01
  1.479085e-01
  1.899759e-01
  2.295001e-01
  2.106965e-01
  1.416792e-01
  7.828504e-02
  5.608137e-02
  6.416739e-02
  8.053605e-02
  8.338786e-02
  6.847957e-02
  5.614707e-02
  6.793093e-02
  1.208647e-01
  2.062593e-01
  2.573646e-01
  2.298043e-01
  1.460655e-01
  8.994721e-02
  1.024161e-01
  1.910940e-01
  2.984493e-01
  3.402622e-01
  2.821890e-01
  1.668840e-01
  9.006030e-02
  1.096872e-01
  2.674138e-01
  5.733216e-01
  7.971153e-01
  9.002964e-01
  9.415874e-01
  9.459497e-01
  9.013144e-01
  7.513301e-01
  4.600058e-01
  2.172268e-01
  1.012040e-01
  5.564685e-02
  4.684261e-02
  8.810539e-02
  3.018079e-01
  8.128827e-01
  9.723725e-01
  9.987127e-01
  9.712544e-01
  8.066603e-01
  2.895817e-01
  8.194842e-02
  5.094407e-02
  1.312731e-01
  5.165756e-01
  8.878727e-01
  9.567193e-01
  8.755588e-01
  4.793222e-01
  1.274440e-01
  6.850962e-02
  1.527694e-01
  4.771498e-01
  7.533200e-01
  7.691165e-01
  7.978081e-01
  3.420950e-01
  1.164014e-01
  7.396350e-02
  7.104432e-02
  6.725543e-02
  6.211652e-02
  7.049986e-02
  1.034351e-01
  1.546449e-01
  1.840544e-01
  1.604970e-01
  1.109394e-01
  9.728726e-02
  1.692978e-01
  3.827023e-01
  6.505044e-01
  7.533588e-01
  6.857973e-01
  4.316551e-01
  2.199715e-01
  2.623707e-01
  5.603017e-01
  7.814904e-01
  8.346071e-01
  7.580501e-01
  4.780326e-01
  1.623470e-01
  7.494725e-02
  9.307120e-02
  1.878971e-01
  3.613374e-01
  5.983639e-01
  7.713202e-01
  8.717640e-01
  9.183855e-01
  9.067059e-01
  8.173612e-01
  6.243860e-01
  3.522549e-01
  1.697295e-01
  8.694981e-02
  1.018596e-01
  3.115761e-01
  8.178736e-01
  9.738840e-01
  9.999000e-01
  9.760684e-01
  8.198974e-01
  3.015730e-01
  8.631831e-02
  5.710645e-02
  1.556908e-01
  5.933167e-01
  9.056397e-01
  9.516752e-01
  8.355603e-01
  3.522959e-01
  9.264495e-02
  7.250758e-02
  2.285164e-01
  7.228304e-01
  9.303719e-01
  9.434214e-01
  8.701372e-01
  4.149413e-01
  1.216071e-01
  5.416446e-02
  4.505151e-02
  5.808965e-02
  1.047866e-01
  2.067678e-01
  3.664909e-01
  5.472017e-01
  6.159487e-01
  5.217150e-01
  3.412045e-01
  2.840588e-01
  4.635731e-01
  7.611407e-01
  9.099660e-01
  9.472161e-01
  9.047597e-01
  7.159324e-01
  4.072602e-01
  4.649155e-01
  8.006477e-01
  9.449036e-01
  9.764472e-01
  9.430439e-01
  7.559208e-01
  2.721685e-01
  8.469082e-02
  4.948770e-02
  5.964605e-02
  9.786622e-02
  1.744567e-01
  3.112057e-01
  5.527969e-01
  7.827318e-01
  9.037636e-01
  9.319227e-01
  8.954518e-01
  7.764928e-01
  5.190309e-01
  2.267599e-01
  1.284925e-01
  2.546276e-01
  6.982876e-01
  9.129931e-01
  9.588890e-01
  9.189105e-01
  7.042494e-01
  2.347894e-01
  7.357525e-02
  5.703903e-02
  1.602692e-01
  5.988576e-01
  9.058727e-01
  9.468944e-01
  8.120544e-01
  2.938391e-01
  7.756270e-02
  7.457501e-02
  2.609254e-01
  7.930259e-01
  9.689282e-01
  9.823005e-01
  8.318589e-01
  3.755146e-01
  1.135188e-01
  5.481374e-02
  6.099820e-02
  1.344834e-01
  3.368529e-01
  6.330720e-01
  8.155654e-01
  8.951078e-01
  9.081247e-01
  8.494071e-01
  7.035503e-01
  6.043470e-01
  7.400180e-01
  9.008287e-01
  9.676271e-01
  9.766853e-01
  9.252244e-01
  7.229952e-01
  3.886233e-01
  4.416916e-01
  7.989883e-01
  9.552559e-01
  9.939506e-01
  9.766126e-01
  8.315644e-01
  3.298511e-01
  9.704816e-02
  4.484691e-02
  3.603809e-02
  3.929730e-02
  5.212100e-02
  8.573456e-02
  1.815689e-01
  4.195241e-01
  7.545504e-01
  9.190878e-01
  9.613181e-01
  9.419613e-01
  8.272149e-01
  4.903022e-01
  1.803152e-01
  1.628816e-01
  3.824995e-01
  6.638193e-01
  7.590106e-01
  6.761705e-01
  3.846289e-01
  1.280505e-01
  5.211754e-02
  4.920524e-02
  1.339796e-01
  5.021150e-01
  8.740502e-01
  9.380864e-01
  8.076796e-01
  2.938387e-01
  7.623117e-02
  6.704088e-02
  2.242469e-01
  7.189030e-01
  9.338249e-01
  9.568606e-01
  6.108123e-01
  2.382835e-01
  8.804280e-02
  6.294838e-02
  1.160156e-01
  3.527698e-01
  7.273649e-01
  9.037588e-01
  9.618306e-01
  9.760487e-01
  9.605967e-01
  8.896840e-01
  7.169388e-01
  5.770308e-01
  6.914341e-01
  8.614001e-01
  9.355841e-01
  9.307721e-01
  8.183846e-01
  4.906414e-01
  2.072681e-01
  2.407948e-01
  5.877895e-01
  8.608783e-01
  9.472757e-01
  9.333627e-01
  7.614124e-01
  2.872049e-01
  9.132959e-02
  4.726384e-02
  3.947761e-02
  3.975171e-02
  4.036935e-02
  4.263957e-02
  6.350439e-02
  1.557464e-01
  4.363984e-01
  7.954190e-01
  9.405249e-01
  9.710295e-01
  9.189619e-01
  6.588171e-01
  2.196451e-01
  1.037721e-01
  1.328415e-01
  2.119571e-01
  2.541937e-01
  2.199437e-01
  1.300786e-01
  6.263481e-02
  3.792394e-02
  3.894617e-02
  9.122475e-02
  3.353360e-01
  7.901594e-01
  9.184785e-01
  8.229125e-01
  3.601363e-01
  9.249908e-02
  5.413487e-02
  1.348246e-01
  4.386738e-01
  7.342593e-01
  7.847899e-01
  2.171349e-01
  1.086964e-01
  6.570533e-02
  7.661284e-02
  1.972396e-01
  6.223698e-01
  9.039462e-01
  9.778084e-01
  9.897701e-01
  9.765601e-01
  9.205629e-01
  7.467231e-01
  4.149007e-01
  2.473040e-01
  3.284671e-01
  5.753115e-01
  7.310513e-01
  7.139285e-01
  5.025991e-01
  2.148022e-01
  9.122549e-02
  1.007088e-01
  2.512432e-01
  5.405509e-01
  7.228647e-01
  7.078992e-01
  4.714793e-01
  1.709249e-01
  7.117246e-02
  5.170319e-02
  5.810719e-02
  7.590036e-02
  8.544972e-02
  7.610372e-02
  6.121856e-02
  7.379495e-02
  1.841682e-01
  4.997489e-01
  8.010696e-01
  9.051715e-01
  8.663093e-01
  5.951181e-01
  1.949776e-01
  7.810393e-02
  6.293373e-02
  7.569243e-02
  8.961347e-02
  9.076606e-02
  7.579443e-02
  5.598140e-02
  4.055250e-02
  3.490616e-02
  5.787685e-02
  1.945642e-01
  6.233968e-01
  8.781340e-01
  8.563796e-01
  5.207025e-01
  1.478089e-01
  5.310196e-02
  6.413147e-02
  1.466093e-01
  2.573855e-01
  2.915496e-01
  8.540790e-02
  6.655436e-02
  6.017391e-02
  8.580163e-02
  2.341238e-01
  7.013639e-01
  9.311911e-01
  9.782806e-01
  9.699245e-01
  9.168552e-01
  7.559310e-01
  4.151125e-01
  1.610207e-01
  8.837103e-02
  1.100669e-01
  1.882549e-01
  2.578459e-01
  2.576311e-01
  1.884573e-01
  1.127940e-01
  7.695758e-02
  7.041215e-02
  9.712378e-02
  1.672976e-01
  2.309456e-01
  2.278629e-01
  1.545231e-01
  8.099577e-02
  5.715894e-02
  6.688167e-02
  1.171575e-01
  2.180920e-01
  2.842953e-01
  2.604967e-01
  1.772870e-01
  1.017073e-01
  9.397296e-02
  1.921823e-01
  4.089845e-01
  5.951753e-01
  5.616926e-01
  3.121985e-01
  1.187239e-01
  5.966962e-02
  4.889105e-02
  5.887213e-02
  9.017043e-02
  1.340298e-01
  1.559648e-01
  1.348206e-01
  9.074288e-02
  5.486980e-02
  4.592450e-02
  1.076584e-01
  3.947601e-01
  8.121040e-01
  8.906692e-01
  7.182046e-01
  2.820173e-01
  8.166968e-02
  4.400297e-02
  5.602087e-02
  8.162741e-02
  9.499337e-02
  8.217014e-02
  8.351495e-02
  7.611029e-02
  8.682818e-02
  1.905675e-01
  5.495220e-01
  8.183229e-01
  8.816358e-01
  8.421241e-01
  6.925420e-01
  3.926134e-01
  1.619131e-01
  7.490568e-02
  5.779409e-02
  6.673529e-02
  8.705112e-02
  1.094048e-01
  1.357550e-01
  1.772602e-01
  2.126233e-01
  2.102157e-01
  1.642167e-01
  1.046135e-01
  7.845529e-02
  7.742893e-02
  7.508249e-02
  6.415262e-02
  5.589436e-02
  6.462727e-02
  1.139915e-01
  2.832034e-01
  6.099652e-01
  7.683764e-01
  7.533417e-01
  5.847537e-01
  3.082626e-01
  1.404238e-01
  9.763889e-02
  1.307994e-01
  1.805827e-01
  1.758632e-01
  1.146397e-01
  6.613884e-02
  4.848558e-02
  5.201878e-02
  9.240205e-02
  2.256976e-01
  4.220760e-01
  5.348147e-01
  4.845203e-01
  3.238559e-01
  1.675290e-01
  7.547048e-02
  7.711871e-02
  2.536860e-01
  7.401295e-01
  9.099161e-01
  8.578111e-01
  5.327485e-01
  1.570119e-01
  5.296592e-02
  3.901997e-02
  4.956008e-02
  6.784812e-02
  2.237950e-01
  2.288487e-01
  1.658005e-01
  1.039969e-01
  1.172031e-01
  2.375510e-01
  4.077957e-01
  4.792036e-01
  4.038829e-01
  2.591746e-01
  1.365135e-01
  7.711408e-02
  6.327654e-02
  6.826651e-02
  7.751179e-02
  8.852939e-02
  1.193531e-01
  2.305646e-01
  4.654974e-01
  6.602509e-01
  6.920663e-01
  5.511838e-01
  2.785203e-01
  1.060278e-01
  5.815952e-02
  5.300679e-02
  6.393296e-02
  8.472492e-02
  1.230088e-01
  2.232221e-01
  4.928999e-01
  8.025946e-01
  9.114685e-01
  9.253764e-01
  8.708306e-01
  6.958957e-01
  3.770904e-01
  1.590085e-01
  8.298070e-02
  6.965895e-02
  6.570776e-02
  5.500693e-02
  4.546291e-02
  4.418903e-02
  6.620346e-02
  1.820062e-01
  5.574701e-01
  8.271923e-01
  9.027887e-01
  8.877241e-01
  7.873338e-01
  5.249162e-01
  2.029408e-01
  9.542819e-02
  1.962195e-01
  6.552833e-01
  9.086916e-01
  9.284451e-01
  7.497256e-01
  2.753664e-01
  8.503930e-02
  5.748071e-02
  8.937228e-02
  1.592514e-01
  7.097331e-01
  6.984506e-01
  4.771051e-01
  1.857085e-01
  9.478993e-02
  9.934012e-02
  1.348789e-01
  1.553428e-01
  1.389263e-01
  1.037246e-01
  7.624105e-02
  6.797615e-02
  7.579340e-02
  9.040538e-02
  1.042900e-01
  1.238630e-01
  2.031553e-01
  4.812191e-01
  7.968552e-01
  9.167494e-01
  9.353594e-01
  8.661995e-01
  5.977807e-01
  1.993375e-01
  8.507891e-02
  9.321329e-02
  1.653888e-01
  2.610016e-01
  3.561740e-01
  4.583352e-01
  5.842363e-01
  7.330448e-01
  8.320963e-01
  9.034425e-01
  9.319136e-01
  8.927029e-01
  7.342037e-01
  4.059148e-01
  1.525796e-01
  6.459649e-02
  4.427171e-02
  3.938739e-02
  3.788251e-02
  4.307974e-02
  8.280284e-02
  2.774285e-01
  7.690913e-01
  9.497149e-01
  9.881519e-01
  9.872751e-01
  9.550306e-01
  8.246427e-01
  4.427678e-01
  1.529643e-01
  1.672047e-01
  5.203886e-01
  8.698399e-01
  9.423590e-01
  8.365528e-01
  4.031507e-01
  1.522846e-01
  1.539797e-01
  3.013717e-01
  5.483324e-01
  9.442624e-01
  9.274083e-01
  7.591264e-01
  2.935292e-01
  1.016203e-01
  6.637085e-02
  7.596898e-02
  1.027410e-01
  1.242517e-01
  1.218272e-01
  1.019043e-01
  8.749230e-02
  9.342788e-02
  1.105721e-01
  1.295733e-01
  1.614897e-01
  2.846560e-01
  6.430582e-01
  8.906702e-01
  9.660025e-01
  9.801569e-01
  9.418969e-01
  7.448777e-01
  2.824976e-01
  1.489256e-01
  2.565298e-01
  5.347124e-01
  7.383221e-01
  7.927592e-01
  7.189547e-01
  4.778366e-01
  3.638341e-01
  4.528426e-01
  6.987662e-01
  8.898903e-01
  9.406992e-01
  9.065794e-01
  7.379107e-01
  3.562271e-01
  1.104270e-01
  4.828254e-02
  3.667152e-02
  3.620099e-02
  4.540116e-02
  9.980311e-02
  3.482523e-01
  8.302033e-01
  9.684994e-01
  9.966036e-01
  9.999000e-01
  9.888300e-01
  9.168863e-01
  6.178428e-01
  2.022256e-01
  1.352437e-01
  3.315906e-01
  7.283655e-01
  8.706482e-01
  7.953965e-01
  4.508517e-01
  2.741393e-01
  4.407064e-01
  7.279877e-01
  8.865987e-01
  9.960149e-01
  9.748619e-01
  8.302064e-01
  3.288111e-01
  1.019091e-01
  6.378850e-02
  9.858299e-02
  2.095115e-01
  3.234395e-01
  3.394928e-01
  2.501430e-01
  1.433051e-01
  1.115966e-01
  1.193033e-01
  1.394375e-01
  1.743799e-01
  2.818384e-01
  5.811487e-01
  8.249613e-01
  9.173594e-01
  9.385000e-01
  8.906524e-01
  6.743199e-01
  2.818521e-01
  2.349014e-01
  5.446671e-01
  8.444118e-01
  9.400267e-01
  9.336961e-01
  7.852551e-01
  3.246263e-01
  1.230168e-01
  1.313348e-01
  3.462876e-01
  7.838193e-01
  9.374407e-01
  9.600173e-01
  8.988873e-01
  6.339180e-01
  1.950278e-01
  6.424867e-02
  4.037132e-02
  4.191240e-02
  6.109280e-02
  1.373437e-01
  4.183402e-01
  8.262288e-01
  9.425810e-01
  9.690547e-01
  9.747153e-01
  9.623492e-01
  8.810509e-01
  5.688968e-01
  1.840968e-01
  9.717452e-02
  1.616977e-01
  3.757796e-01
  5.577087e-01
  5.124517e-01
  3.298663e-01
  3.712712e-01
  7.243731e-01
  9.170364e-01
  9.797778e-01
  9.993361e-01
  9.614721e-01
  7.769722e-01
  2.726677e-01
  8.557468e-02
  7.572946e-02
  2.019366e-01
  5.577521e-01
  7.842509e-01
  8.015697e-01
  6.235162e-01
  2.646005e-01
  1.318406e-01
  1.173777e-01
  1.434607e-01
  1.956145e-01
  2.613539e-01
  3.806143e-01
  5.444432e-01
  6.741990e-01
  7.102795e-01
  6.142872e-01
  3.631023e-01
  1.821337e-01
  2.550223e-01
  6.807662e-01
  9.270458e-01
  9.809001e-01
  9.513378e-01
  7.554617e-01
  2.382279e-01
  5.952513e-02
  4.842336e-02
  1.927307e-01
  6.982612e-01
  9.289457e-01
  9.771823e-01
  9.544760e-01
  7.822580e-01
  2.724338e-01
  8.246583e-02
  5.035641e-02
  6.635990e-02
  1.268625e-01
  2.594587e-01
  5.181284e-01
  7.455928e-01
  8.079361e-01
  8.223706e-01
  8.229875e-01
  7.886949e-01
  6.416020e-01
  3.167030e-01
  1.160621e-01
  6.823249e-02
  8.081178e-02
  1.337328e-01
  1.852895e-01
  1.821648e-01
  1.763164e-01
  3.519325e-01
  7.976366e-01
  9.593804e-01
  9.973622e-01
  9.645334e-01
  8.747997e-01
  5.714870e-01
  1.690561e-01
  6.270174e-02
  9.990655e-02
  3.602375e-01
  8.017337e-01
  9.443633e-01
  9.460142e-01
  8.010789e-01
  3.429663e-01
  1.363150e-01
  1.133902e-01
  1.792915e-01
  3.363728e-01
  4.170100e-01
  3.532193e-01
  2.490120e-01
  2.230932e-01
  2.185162e-01
  1.842282e-01
  1.224392e-01
  9.839577e-02
  1.984956e-01
  5.973168e-01
  8.861611e-01
  9.492879e-01
  8.915988e-01
  6.105614e-01
  1.701735e-01
  4.423444e-02
  3.768815e-02
  1.575772e-01
  6.500428e-01
  9.258128e-01
  9.848732e-01
  9.703090e-01
  8.226779e-01
  3.062176e-01
  9.424821e-02
  7.044007e-02
  1.416120e-01
  3.439549e-01
  5.662962e-01
  6.239825e-01
  4.923149e-01
  3.597305e-01
  3.038813e-01
  2.863941e-01
  2.622211e-01
  2.019057e-01
  1.173282e-01
  7.153875e-02
  6.045107e-02
  6.256321e-02
  7.081452e-02
  7.854329e-02
  8.041106e-02
  1.051322e-01
  2.682437e-01
  7.256841e-01
  9.306435e-01
  9.763311e-01
  7.950082e-01
  5.936071e-01
  2.542402e-01
  7.842101e-02
  5.016461e-02
  1.464984e-01
  5.502769e-01
  8.931832e-01
  9.747205e-01
  9.583527e-01
  7.955231e-01
  3.107163e-01
  1.158791e-01
  1.148329e-01
  2.758136e-01
  6.532045e-01
  7.696850e-01
  6.107009e-01
  2.481566e-01
  1.060138e-01
  7.404050e-02
  6.391904e-02
  5.618816e-02
  6.212347e-02
  1.190155e-01
  3.332689e-01
  6.527446e-01
  7.563920e-01
  6.445915e-01
  3.174799e-01
  9.673729e-02
  3.688751e-02
  4.056123e-02
  1.445681e-01
  5.803368e-01
  9.079869e-01
  9.799334e-01
  9.579967e-01
  7.831038e-01
  2.763783e-01
  9.340270e-02
  1.041129e-01
  3.010831e-01
  6.874564e-01
  8.163082e-01
  6.658618e-01
  2.808328e-01
  1.169412e-01
  7.566977e-02
  6.908155e-02
  6.970146e-02
  7.064424e-02
  7.571793e-02
  8.940687e-02
  9.969359e-02
  9.356045e-02
  7.527551e-02
  6.171712e-02
  5.709058e-02
  7.142066e-02
  1.605932e-01
  4.645116e-01
  7.545615e-01
  8.379874e-01
  2.988522e-01
  1.870131e-01
  8.397780e-02
  4.341603e-02
  7.029566e-02
  2.508007e-01
  7.192066e-01
  9.312198e-01
  9.668192e-01
  9.076006e-01
  6.460651e-01
  2.083156e-01
  8.261404e-02
  1.128792e-01
  3.563333e-01
  8.159887e-01
  9.198210e-01
  8.010748e-01
  3.426718e-01
  1.052753e-01
  5.166979e-02
  4.404703e-02
  4.793792e-02
  5.773146e-02
  7.939473e-02
  1.364863e-01
  2.290599e-01
  2.678294e-01
  2.140988e-01
  1.134444e-01
  5.280866e-02
  3.354556e-02
  4.118456e-02
  1.137838e-01
  4.166217e-01
  8.119171e-01
  9.199050e-01
  8.694937e-01
  6.038577e-01
  1.904113e-01
  8.020574e-02
  1.420261e-01
  4.807272e-01
  8.344257e-01
  8.604330e-01
  5.792128e-01
  1.755709e-01
  5.401288e-02
  2.853457e-02
  2.815138e-02
  4.237427e-02
  8.255033e-02
  1.648665e-01
  2.608385e-01
  3.071275e-01
  2.614457e-01
  1.519606e-01
  8.059413e-02
  5.672196e-02
  5.600503e-02
  8.298800e-02
  1.702181e-01
  2.909232e-01
  3.468753e-01
  9.028404e-02
  6.360880e-02
  4.679524e-02
  6.624197e-02
  1.777731e-01
  4.987281e-01
  8.469944e-01
  9.454018e-01
  9.228843e-01
  7.500424e-01
  3.494679e-01
  1.029038e-01
  5.188343e-02
  1.021681e-01
  3.783366e-01
  8.549313e-01
  9.536381e-01
  8.556839e-01
  3.933422e-01
  1.137412e-01
  5.263490e-02
  5.273826e-02
  7.649271e-02
  1.040319e-01
  1.157729e-01
  1.098439e-01
  1.018375e-01
  9.432689e-02
  7.725627e-02
  5.519673e-02
  4.111030e-02
  3.590891e-02
  4.063976e-02
  7.484663e-02
  2.088758e-01
  4.974054e-01
  6.490685e-01
  5.471117e-01
  2.721041e-01
  9.620949e-02
  6.868478e-02
  1.841855e-01
  6.090186e-01
  8.545058e-01
  7.772932e-01
  3.716265e-01
  1.028963e-01
  3.510672e-02
  2.465520e-02
  3.866731e-02
  9.490730e-02
  2.512379e-01
  5.360492e-01
  7.502508e-01
  8.054764e-01
  7.084539e-01
  3.840573e-01
  1.379625e-01
  6.874276e-02
  5.590817e-02
  6.104319e-02
  7.830674e-02
  9.970095e-02
  1.062951e-01
  4.815203e-02
  4.557996e-02
  6.982696e-02
  1.861057e-01
  4.821888e-01
  7.979493e-01
  9.289101e-01
  9.312401e-01
  7.973007e-01
  4.306314e-01
  1.365630e-01
  4.270766e-02
  3.173693e-02
  8.713464e-02
  3.581974e-01
  8.464160e-01
  9.438153e-01
  8.266784e-01
  3.446795e-01
  1.016164e-01
  6.093155e-02
  1.020638e-01
  2.153663e-01
  3.243506e-01
  3.408531e-01
  2.471314e-01
  1.250435e-01
  6.977063e-02
  5.317803e-02
  5.071472e-02
  5.485550e-02
  5.816787e-02
  5.802022e-02
  6.313358e-02
  9.392231e-02
  1.623100e-01
  2.025340e-01
  1.659403e-01
  9.333275e-02
  5.681433e-02
  8.929569e-02
  2.825823e-01
  7.073832e-01
  8.245494e-01
  5.952282e-01
  1.974605e-01
  5.890129e-02
  3.242469e-02
  4.585071e-02
  1.127740e-01
  3.023871e-01
  6.405915e-01
  8.618166e-01
  9.458378e-01
  9.590023e-01
  8.894264e-01
  5.854407e-01
  1.952251e-01
  8.663108e-02
  7.460691e-02
  8.345605e-02
  8.495300e-02
  7.400173e-02
  5.913865e-02
  5.183021e-02
  5.891263e-02
  1.423672e-01
  4.585570e-01
  8.093016e-01
  9.376941e-01
  9.527274e-01
  8.626929e-01
  5.390616e-01
  1.755634e-01
  4.748361e-02
  1.719493e-02
  2.094746e-02
  7.737436e-02
  3.403447e-01
  8.225446e-01
  9.041162e-01
  7.135576e-01
  2.399542e-01
  8.010759e-02
  9.036702e-02
  2.660355e-01
  6.226108e-01
  8.068541e-01
  8.157723e-01
  6.472246e-01
  2.764215e-01
  1.003306e-01
  6.744609e-02
  9.087055e-02
  1.437907e-01
  1.805655e-01
  1.732044e-01
  1.353603e-01
  1.000424e-01
  8.399290e-02
  7.568641e-02
  6.301224e-02
  5.200385e-02
  7.104146e-02
  1.941590e-01
  5.320915e-01
  8.193654e-01
  7.987241e-01
  4.066357e-01
  1.129164e-01
  4.449646e-02
  5.131567e-02
  1.268456e-01