# vtk DataFile Version 2.0
time_10.vtk
ASCII
DATASET STRUCTURED_GRID
DIMENSIONS    64    64     1
POINTS    4096 float
  0.000000e+00   0.000000e+00   0.000000e+00
  0.000000e+00   1.000000e+00   0.000000e+00
  0.000000e+00   2.000000e+00   0.000000e+00
  0.000000e+00   3.000000e+00   0.000000e+00
  0.000000e+00   4.000000e+00   0.000000e+00
  0.000000e+00   5.000000e+00   0.000000e+00
  0.000000e+00   6.000000e+00   0.000000e+00
  0.000000e+00   7.000000e+00   0.000000e+00
  0.000000e+00   8.000000e+00   0.000000e+00
  0.000000e+00   9.000000e+00   0.000000e+00
  0.000000e+00   1.000000e+01   0.000000e+00
  0.000000e+00   1.100000e+01   0.000000e+00
  0.000000e+00   1.200000e+01   0.000000e+00
  0.000000e+00   1.300000e+01   0.000000e+00
  0.000000e+00   1.400000e+01   0.000000e+00
  0.000000e+00   1.500000e+01   0.000000e+00
  0.000000e+00   1.600000e+01   0.000000e+00
  0.000000e+00   1.700000e+01   0.000000e+00
  0.000000e+00   1.800000e+01   0.000000e+00
  0.000000e+00   1.900000e+01   0.000000e+00
  0.000000e+00   2.000000e+01   0.000000e+00
  0.000000e+00   2.100000e+01   0.000000e+00
  0.000000e+00   2.200000e+01   0.000000e+00
  0.000000e+00   2.300000e+01   0.000000e+00
  0.000000e+00   2.400000e+01   0.000000e+00
  0.000000e+00   2.500000e+01   0.000000e+00
  0.000000e+00   2.600000e+01   0.000000e+00
  0.000000e+00   2.700000e+01   0.000000e+00
  0.000000e+00   2.800000e+01   0.000000e+00
  0.000000e+00   2.900000e+01   0.000000e+00
  0.000000e+00   3.000000e+01   0.000000e+00
  0.000000e+00   3.100000e+01   0.000000e+00
  0.000000e+00   3.200000e+01   0.000000e+00
  0.000000e+00   3.300000e+01   0.000000e+00
  0.000000e+00   3.400000e+01   0.000000e+00
  0.000000e+00   3.500000e+01   0.000000e+00
  0.000000e+00   3.600000e+01   0.000000e+00
  0.000000e+00   3.700000e+01   0.000000e+00
  0.000000e+00   3.800000e+01   0.000000e+00
  0.000000e+00   3.900000e+01   0.000000e+00
  0.000000e+00   4.000000e+01   0.000000e+00
  0.000000e+00   4.100000e+01   0.000000e+00
  0.000000e+00   4.200000e+01   0.000000e+00
  0.000000e+00   4.300000e+01   0.000000e+00
  0.000000e+00   4.400000e+01   0.000000e+00
  0.000000e+00   4.500000e+01   0.000000e+00
  0.000000e+00   4.600000e+01   0.000000e+00
  0.000000e+00   4.700000e+01   0.000000e+00
  0.000000e+00   4.800000e+01   0.000000e+00
  0.000000e+00   4.900000e+01   0.000000e+00
  0.000000e+00   5.000000e+01   0.000000e+00
  0.000000e+00   5.100000e+01   0.000000e+00
  0.000000e+00   5.200000e+01   0.000000e+00
  0.000000e+00   5.300000e+01   0.000000e+00
  0.000000e+00   5.400000e+01   0.000000e+00
  0.000000e+00   5.500000e+01   0.000000e+00
  0.000000e+00   5.600000e+01   0.000000e+00
  0.000000e+00   5.700000e+01   0.000000e+00
  0.000000e+00   5.800000e+01   0.000000e+00
  0.000000e+00   5.900000e+01   0.000000e+00
  0.000000e+00   6.000000e+01   0.000000e+00
  0.000000e+00   6.100000e+01   0.000000e+00
  0.000000e+00   6.200000e+01   0.000000e+00
  0.000000e+00   6.300000e+01   0.000000e+00
  1.000000e+00   0.000000e+00   0.000000e+00
  1.000000e+00   1.000000e+00   0.000000e+00
  1.000000e+00   2.000000e+00   0.000000e+00
  1.000000e+00   3.000000e+00   0.000000e+00
  1.000000e+00   4.000000e+00   0.000000e+00
  1.000000e+00   5.000000e+00   0.000000e+00
  1.000000e+00   6.000000e+00   0.000000e+00
  1.000000e+00   7.000000e+00   0.000000e+00
  1.000000e+00   8.000000e+00   0.000000e+00
  1.000000e+00   9.000000e+00   0.000000e+00
  1.000000e+00   1.000000e+01   0.000000e+00
  1.000000e+00   1.100000e+01   0.000000e+00
  1.000000e+00   1.200000e+01   0.000000e+00
  1.000000e+00   1.300000e+01   0.000000e+00
  1.000000e+00   1.400000e+01   0.000000e+00
  1.000000e+00   1.500000e+01   0.000000e+00
  1.000000e+00   1.600000e+01   0.000000e+00
  1.000000e+00   1.700000e+01   0.000000e+00
  1.000000e+00   1.800000e+01   0.000000e+00
  1.000000e+00   1.900000e+01   0.000000e+00
  1.000000e+00   2.000000e+01   0.000000e+00
  1.000000e+00   2.100000e+01   0.000000e+00
  1.000000e+00   2.200000e+01   0.000000e+00
  1.000000e+00   2.300000e+01   0.000000e+00
  1.000000e+00   2.400000e+01   0.000000e+00
  1.000000e+00   2.500000e+01   0.000000e+00
  1.000000e+00   2.600000e+01   0.000000e+00
  1.000000e+00   2.700000e+01   0.000000e+00
  1.000000e+00   2.800000e+01   0.000000e+00
  1.000000e+00   2.900000e+01   0.000000e+00
  1.000000e+00   3.000000e+01   0.000000e+00
  1.000000e+00   3.100000e+01   0.000000e+00
  1.000000e+00   3.200000e+01   0.000000e+00
  1.000000e+00   3.300000e+01   0.000000e+00
  1.000000e+00   3.400000e+01   0.000000e+00
  1.000000e+00   3.500000e+01   0.000000e+00
  1.000000e+00   3.600000e+01   0.000000e+00
  1.000000e+00   3.700000e+01   0.000000e+00
  1.000000e+00   3.800000e+01   0.000000e+00
  1.000000e+00   3.900000e+01   0.000000e+00
  1.000000e+00   4.000000e+01   0.000000e+00
  1.000000e+00   4.100000e+01   0.000000e+00
  1.000000e+00   4.200000e+01   0.000000e+00
  1.000000e+00   4.300000e+01   0.000000e+00
  1.000000e+00   4.400000e+01   0.000000e+00
  1.000000e+00   4.500000e+01   0.000000e+00
  1.000000e+00   4.600000e+01   0.000000e+00
  1.000000e+00   4.700000e+01   0.000000e+00
  1.000000e+00   4.800000e+01   0.000000e+00
  1.000000e+00   4.900000e+01   0.000000e+00
  1.000000e+00   5.000000e+01   0.000000e+00
  1.000000e+00   5.100000e+01   0.000000e+00
  1.000000e+00   5.200000e+01   0.000000e+00
  1.000000e+00   5.300000e+01   0.000000e+00
  1.000000e+00   5.400000e+01   0.000000e+00
  1.000000e+00   5.500000e+01   0.000000e+00
  1.000000e+00   5.600000e+01   0.000000e+00
  1.000000e+00   5.700000e+01   0.000000e+00
  1.000000e+00   5.800000e+01   0.000000e+00
  1.000000e+00   5.900000e+01   0.000000e+00
  1.000000e+00   6.000000e+01   0.000000e+00
  1.000000e+00   6.100000e+01   0.000000e+00
  1.000000e+00   6.200000e+01   0.000000e+00
  1.000000e+00   6.300000e+01   0.000000e+00
  2.000000e+00   0.000000e+00   0.000000e+00
  2.000000e+00   1.000000e+00   0.000000e+00
  2.000000e+00   2.000000e+00   0.000000e+00
  2.000000e+00   3.000000e+00   0.000000e+00
  2.000000e+00   4.000000e+00   0.000000e+00
  2.000000e+00   5.000000e+00   0.000000e+00
  2.000000e+00   6.000000e+00   0.000000e+00
  2.000000e+00   7.000000e+00   0.000000e+00
  2.000000e+00   8.000000e+00   0.000000e+00
  2.000000e+00   9.000000e+00   0.000000e+00
  2.000000e+00   1.000000e+01   0.000000e+00
  2.000000e+00   1.100000e+01   0.000000e+00
  2.000000e+00   1.200000e+01   0.000000e+00
  2.000000e+00   1.300000e+01   0.000000e+00
  2.000000e+00   1.400000e+01   0.000000e+00
  2.000000e+00   1.500000e+01   0.000000e+00
  2.000000e+00   1.600000e+01   0.000000e+00
  2.000000e+00   1.700000e+01   0.000000e+00
  2.000000e+00   1.800000e+01   0.000000e+00
  2.000000e+00   1.900000e+01   0.000000e+00
  2.000000e+00   2.000000e+01   0.000000e+00
  2.000000e+00   2.100000e+01   0.000000e+00
  2.000000e+00   2.200000e+01   0.000000e+00
  2.000000e+00   2.300000e+01   0.000000e+00
  2.000000e+00   2.400000e+01   0.000000e+00
  2.000000e+00   2.500000e+01   0.000000e+00
  2.000000e+00   2.600000e+01   0.000000e+00
  2.000000e+00   2.700000e+01   0.000000e+00
  2.000000e+00   2.800000e+01   0.000000e+00
  2.000000e+00   2.900000e+01   0.000000e+00
  2.000000e+00   3.000000e+01   0.000000e+00
  2.000000e+00   3.100000e+01   0.000000e+00
  2.000000e+00   3.200000e+01   0.000000e+00
  2.000000e+00   3.300000e+01   0.000000e+00
  2.000000e+00   3.400000e+01   0.000000e+00
  2.000000e+00   3.500000e+01   0.000000e+00
  2.000000e+00   3.600000e+01   0.000000e+00
  2.000000e+00   3.700000e+01   0.000000e+00
  2.000000e+00   3.800000e+01   0.000000e+00
  2.000000e+00   3.900000e+01   0.000000e+00
  2.000000e+00   4.000000e+01   0.000000e+00
  2.000000e+00   4.100000e+01   0.000000e+00
  2.000000e+00   4.200000e+01   0.000000e+00
  2.000000e+00   4.300000e+01   0.000000e+00
  2.000000e+00   4.400000e+01   0.000000e+00
  2.000000e+00   4.500000e+01   0.000000e+00
  2.000000e+00   4.600000e+01   0.000000e+00
  2.000000e+00   4.700000e+01   0.000000e+00
  2.000000e+00   4.800000e+01   0.000000e+00
  2.000000e+00   4.900000e+01   0.000000e+00
  2.000000e+00   5.000000e+01   0.000000e+00
  2.000000e+00   5.100000e+01   0.000000e+00
  2.000000e+00   5.200000e+01   0.000000e+00
  2.000000e+00   5.300000e+01   0.000000e+00
  2.000000e+00   5.400000e+01   0.000000e+00
  2.000000e+00   5.500000e+01   0.000000e+00
  2.000000e+00   5.600000e+01   0.000000e+00
  2.000000e+00   5.700000e+01   0.000000e+00
  2.000000e+00   5.800000e+01   0.000000e+00
  2.000000e+00   5.900000e+01   0.000000e+00
  2.000000e+00   6.000000e+01   0.000000e+00
  2.000000e+00   6.100000e+01   0.000000e+00
  2.000000e+00   6.200000e+01   0.000000e+00
  2.000000e+00   6.300000e+01   0.000000e+00
  3.000000e+00   0.000000e+00   0.000000e+00
  3.000000e+00   1.000000e+00   0.000000e+00
  3.000000e+00   2.000000e+00   0.000000e+00
  3.000000e+00   3.000000e+00   0.000000e+00
  3.000000e+00   4.000000e+00   0.000000e+00
  3.000000e+00   5.000000e+00   0.000000e+00
  3.000000e+00   6.000000e+00   0.000000e+00
  3.000000e+00   7.000000e+00   0.000000e+00
  3.000000e+00   8.000000e+00   0.000000e+00
  3.000000e+00   9.000000e+00   0.000000e+00
  3.000000e+00   1.000000e+01   0.000000e+00
  3.000000e+00   1.100000e+01   0.000000e+00
  3.000000e+00   1.200000e+01   0.000000e+00
  3.000000e+00   1.300000e+01   0.000000e+00
  3.000000e+00   1.400000e+01   0.000000e+00
  3.000000e+00   1.500000e+01   0.000000e+00
  3.000000e+00   1.600000e+01   0.000000e+00
  3.000000e+00   1.700000e+01   0.000000e+00
  3.000000e+00   1.800000e+01   0.000000e+00
  3.000000e+00   1.900000e+01   0.000000e+00
  3.000000e+00   2.000000e+01   0.000000e+00
  3.000000e+00   2.100000e+01   0.000000e+00
  3.000000e+00   2.200000e+01   0.000000e+00
  3.000000e+00   2.300000e+01   0.000000e+00
  3.000000e+00   2.400000e+01   0.000000e+00
  3.000000e+00   2.500000e+01   0.000000e+00
  3.000000e+00   2.600000e+01   0.000000e+00
[...]
POINT_DATA  4096
SCALARS CON float 1
LOOKUP_TABLE default
  7.788688e-01
  9.523425e-01
  9.927102e-01
  9.990790e-01
  9.954043e-01
  9.830066e-01
  9.469633e-01
  8.256597e-01
  4.826936e-01
  1.391442e-01
  4.486858e-02
  2.409645e-02
  1.913380e-02
  1.842861e-02
  2.082465e-02
  2.752296e-02
  3.856000e-02
  4.888967e-02
  5.149444e-02
  4.720568e-02
  4.234203e-02
  3.865226e-02
  3.488731e-02
  3.082012e-02
  2.982568e-02
  4.481820e-02
  1.177404e-01
  3.461156e-01
  7.045286e-01
  8.924940e-01
  9.482368e-01
  9.459848e-01
  9.125078e-01
  8.596494e-01
  8.047166e-01
  7.357010e-01
  6.030654e-01
  3.898111e-01
  2.071775e-01
  9.318395e-02
  4.300072e-02
  2.799870e-02
  2.874913e-02
  4.649534e-02
  1.007523e-01
  1.851396e-01
  2.272462e-01
  1.910971e-01
  1.081998e-01
  5.792299e-02
  4.606047e-02
  7.120659e-02
  2.097675e-01
  6.256636e-01
  8.642485e-01
  9.143269e-01
  8.558440e-01
  6.312384e-01
  2.436782e-01
  7.264588e-02
  3.485162e-02
  3.888852e-02
  9.127512e-02
  3.171815e-01
  8.776887e-01
  9.831274e-01
  9.974304e-01
  9.885174e-01
  9.633860e-01
  9.069414e-01
  7.755733e-01
  5.012740e-01
  2.012913e-01
  6.868296e-02
  3.394987e-02
  2.562538e-02
  2.306767e-02
  2.229881e-02
  2.363389e-02
  2.868871e-02
  3.883694e-02
  5.262802e-02
  6.621389e-02
  7.739925e-02
  8.508247e-02
  8.646928e-02
  7.830592e-02
  6.098802e-02
  4.176720e-02
  3.375665e-02
  4.916334e-02
  1.235399e-01
  3.391943e-01
  6.841601e-01
  8.819158e-01
  9.510340e-01
  9.683029e-01
  9.673798e-01
  9.603407e-01
  9.459712e-01
  9.097302e-01
  8.204769e-01
  6.168178e-01
  2.945271e-01
  1.023116e-01
  4.616963e-02
  4.756446e-02
  1.096878e-01
  3.317165e-01
  6.348600e-01
  7.364322e-01
  6.258621e-01
  3.108287e-01
  1.073681e-01
  5.884912e-02
  9.354148e-02
  3.129088e-01
  8.076048e-01
  9.634597e-01
  9.893770e-01
  9.684599e-01
  8.572014e-01
  4.864803e-01
  1.318838e-01
  4.763139e-02
  4.971758e-02
  1.295589e-01
  4.553908e-01
  8.507505e-01
  9.582533e-01
  9.628432e-01
  9.222438e-01
  8.223592e-01
  6.291735e-01
  3.535433e-01
  1.695118e-01
  8.424990e-02
  6.030792e-02
  5.875280e-02
  6.045352e-02
  6.102115e-02
  6.204330e-02
  6.810663e-02
  8.675382e-02
  1.254875e-01
  1.794704e-01
  2.344419e-01
  2.829519e-01
  3.178006e-01
  3.249706e-01
  2.890132e-01
  2.068227e-01
  1.060306e-01
  4.871751e-02
  3.335414e-02
  4.671972e-02
  1.127998e-01
  3.033518e-01
  6.400247e-01
  8.623449e-01
  9.501320e-01
  9.796533e-01
  9.890688e-01
  9.906897e-01
  9.850991e-01
  9.632955e-01
  8.896080e-01
  6.580468e-01
  2.517042e-01
  8.725544e-02
  7.833487e-02
  2.132013e-01
  6.599962e-01
  9.058909e-01
  9.545706e-01
  8.883833e-01
  5.881905e-01
  1.785911e-01
  7.305461e-02
  1.072929e-01
  3.711536e-01
  8.587730e-01
  9.817223e-01
  9.999000e-01
  9.928595e-01
  9.366834e-01
  6.892973e-01
  1.966000e-01
  5.969769e-02
  5.250968e-02
  1.291086e-01
  4.377952e-01
  6.226141e-01
  7.826138e-01
  7.758058e-01
  6.450702e-01
  3.986271e-01
  2.070011e-01
  1.116871e-01
  9.178418e-02
  1.243866e-01
  1.825530e-01
  2.285617e-01
  2.531367e-01
  2.633864e-01
  2.725373e-01
  3.000185e-01
  3.748662e-01
  5.162362e-01
  6.675317e-01
  7.637494e-01
  8.148716e-01
  8.406386e-01
  8.446253e-01
  8.077967e-01
  6.596519e-01
  3.284708e-01
  1.032865e-01
  4.008176e-02
  2.792508e-02
  3.962875e-02
  9.420032e-02
  2.547862e-01
  5.738445e-01
  8.313586e-01
  9.430030e-01
  9.825575e-01
  9.960892e-01
  9.999000e-01
  9.966659e-01
  9.721501e-01
  8.557756e-01
  4.588151e-01
  1.454422e-01
  1.046809e-01
  2.709541e-01
  7.702059e-01
  9.608226e-01
  9.904679e-01
  9.344077e-01
  6.629907e-01
  1.993899e-01
  7.477419e-02
  1.062082e-01
  3.754616e-01
  8.631584e-01
  9.818478e-01
  9.999000e-01
  9.970525e-01
  9.601814e-01
  7.738802e-01
  2.363929e-01
  6.462917e-02
  4.489196e-02
  8.819289e-02
  2.621721e-01
  2.023057e-01
  2.671037e-01
  2.531416e-01
  1.851797e-01
  1.093478e-01
  7.119255e-02
  8.927401e-02
  2.064203e-01
  4.299743e-01
  6.566597e-01
  7.649574e-01
  8.010880e-01
  8.102761e-01
  8.133402e-01
  8.226861e-01
  8.474460e-01
  8.873911e-01
  9.265841e-01
  9.527756e-01
  9.683011e-01
  9.773325e-01
  9.803259e-01
  9.698010e-01
  9.020143e-01
  6.328798e-01
  1.887354e-01
  5.589222e-02
  2.633775e-02
  2.133593e-02
  3.126299e-02
  7.437550e-02
  2.046210e-01
  4.923501e-01
  7.895356e-01
  9.292070e-01
  9.793332e-01
  9.963722e-01
  9.999000e-01
  9.887605e-01
  9.092524e-01
  5.720203e-01
  1.790980e-01
  1.052662e-01
  2.311267e-01
  6.714508e-01
  9.012172e-01
  9.378064e-01
  8.452634e-01
  5.041642e-01
  1.486237e-01
  6.112766e-02
  9.342266e-02
  3.419023e-01
  8.485928e-01
  9.774858e-01
  9.987698e-01
  9.966248e-01
  9.648414e-01
  7.968756e-01
  2.488929e-01
  6.230150e-02
  3.389705e-02
  4.820884e-02
  1.003249e-01
  6.368794e-02
  7.603964e-02
  7.126004e-02
  5.663757e-02
  4.703903e-02
  6.758489e-02
  1.907289e-01
  5.524900e-01
  8.259111e-01
  9.274248e-01
  9.588538e-01
  9.663303e-01
  9.658828e-01
  9.633588e-01
  9.619248e-01
  9.640906e-01
  9.706466e-01
  9.791846e-01
  9.870236e-01
  9.934407e-01
  9.981456e-01
  9.999000e-01
  9.968890e-01
  9.540900e-01
  7.416209e-01
  2.318078e-01
  6.478428e-02
  2.744924e-02
  1.765632e-02
  1.587823e-02
  2.378364e-02
  5.726485e-02
  1.603305e-01
  4.063470e-01
  7.274668e-01
  8.941444e-01
  9.569000e-01
  9.744652e-01
  9.599659e-01
  8.569106e-01
  4.866709e-01
  1.521595e-01
  8.011849e-02
  1.289458e-01
  3.451112e-01
  6.137805e-01
  6.764868e-01
  5.123447e-01
  2.265659e-01
  7.867538e-02
  4.389584e-02
  7.732395e-02
  2.936697e-01
  8.212153e-01
  9.700396e-01
  9.962014e-01
  9.946108e-01
  9.633639e-01
  7.982230e-01
  2.476537e-01
  5.662395e-02
  2.457830e-02
  2.770827e-02
  4.231429e-02
  3.054721e-02
  3.440086e-02
  3.450295e-02
  3.442642e-02
  4.454814e-02
  1.034517e-01
  3.537456e-01
  8.078817e-01
  9.584470e-01
  9.918861e-01
  9.974800e-01
  9.952909e-01
  9.898912e-01
  9.824409e-01
  9.734544e-01
  9.651695e-01
  9.614851e-01
  9.633566e-01
  9.689129e-01
  9.757566e-01
  9.816894e-01
  9.838882e-01
  9.743665e-01
  9.116795e-01
  6.536666e-01
  1.977352e-01
  5.876979e-02
  2.678072e-02
  1.714445e-02
  1.283704e-02
  1.212888e-02
  1.867605e-02
  4.456990e-02
  1.211062e-01
  3.016040e-01
  5.818975e-01
  7.633684e-01
  8.209956e-01
  7.894835e-01
  6.096293e-01
  2.632143e-01
  9.368772e-02
  5.460262e-02
  6.361704e-02
  1.140458e-01
  1.848761e-01
  2.046846e-01
  1.531601e-01
  8.092714e-02
  4.261180e-02
  3.363202e-02
  6.316644e-02
  2.416917e-01
  7.707208e-01
  9.563416e-01
  9.921449e-01
  9.921396e-01
  9.612590e-01
  7.997138e-01
  2.552587e-01
  5.375730e-02
  1.782379e-02
  1.726890e-02
  2.363756e-02
  2.188979e-02
  2.547464e-02
  2.799980e-02
  3.251046e-02
  5.029653e-02
  1.321578e-01
  4.586566e-01
  8.809268e-01
  9.849900e-01
  9.999000e-01
  9.978841e-01
  9.880935e-01
  9.704765e-01
  9.432778e-01
  9.029280e-01
  8.568459e-01
  8.270749e-01
  8.208374e-01
  8.314247e-01
  8.489048e-01
  8.636445e-01
  8.646856e-01
  8.303988e-01
  6.943544e-01
  3.627906e-01
  1.149130e-01
  4.398250e-02
  2.523444e-02
  1.822747e-02
  1.444110e-02
  1.269864e-02
  1.367316e-02
  2.013246e-02
  3.938870e-02
  8.559158e-02
  1.684320e-01
  2.533859e-01
  2.988308e-01
  2.795031e-01
  1.968941e-01
  9.892584e-02
  5.283833e-02
  3.990764e-02
  4.056251e-02
  5.030266e-02
  6.434478e-02
  7.012430e-02
  6.186614e-02
  4.720062e-02
  3.597619e-02
  3.192826e-02
  5.204544e-02
  1.838106e-01
  6.598763e-01
  9.243607e-01
  9.840133e-01
  9.893562e-01
  9.622434e-01
  8.192922e-01
  3.110622e-01
  6.656403e-02
  1.685142e-02
  1.245479e-02
  1.685309e-02
  2.286382e-02
  2.536874e-02
  2.769429e-02
  3.253073e-02
  4.911752e-02
  1.197252e-01
  3.979590e-01
  8.270711e-01
  9.536585e-01
  9.728513e-01
  9.608886e-01
  9.240879e-01
  8.518528e-01
  7.421517e-01
  5.812023e-01
  4.096560e-01
  3.153910e-01
  2.921678e-01
  3.090303e-01
  3.446973e-01
  3.774229e-01
  3.803632e-01
  3.333942e-01
  2.375552e-01
  1.240167e-01
  5.751608e-02
  3.490355e-02
  2.829992e-02
  2.709088e-02
  2.891211e-02
  3.291579e-02
  3.779278e-02
  4.357227e-02
  5.171864e-02
  6.417748e-02
  8.039464e-02
  9.234007e-02
  9.367129e-02
  8.393717e-02
  6.539309e-02
  4.640770e-02
  3.656275e-02
  3.335144e-02
  3.380452e-02
  3.820149e-02
  4.871320e-02
  6.465094e-02
  7.644105e-02
  7.593111e-02
  6.334214e-02
  4.696158e-02
  4.783254e-02
  1.222088e-01
  4.506587e-01
  8.435123e-01
  9.617998e-01
  9.833882e-01
  9.670706e-01
  8.668682e-01
  4.780030e-01
  1.311551e-01
  3.679831e-02
  1.921526e-02
  1.958211e-02
  4.738438e-02
  3.835026e-02
  3.254245e-02
  3.267412e-02
  4.182640e-02
  7.951484e-02
  2.227294e-01
  5.644312e-01
  7.677548e-01
  8.095892e-01
  7.686624e-01
  6.398179e-01
  4.191624e-01
  2.429420e-01
  1.453246e-01
  9.190081e-02
  7.044556e-02
  6.963514e-02
  8.013863e-02
  9.440926e-02
  1.050925e-01
  1.062163e-01
  9.559822e-02
  7.538742e-02
  5.339407e-02
  4.091897e-02
  4.048896e-02
  5.296168e-02
  7.665723e-02
  1.110099e-01
  1.502322e-01
  1.825488e-01
  2.051567e-01
  2.192206e-01
  2.218668e-01
  2.034533e-01
  1.558460e-01
  9.732189e-02
  5.847093e-02
  4.068324e-02
  3.353135e-02
  3.105448e-02
  3.092025e-02
  3.400407e-02
  4.733220e-02
  8.997930e-02
  1.728562e-01
  2.452519e-01
  2.613208e-01
  2.132195e-01
  1.265827e-01
  6.760634e-02
  8.059923e-02
  2.415440e-01
  6.506728e-01
  8.895352e-01
  9.593166e-01
  9.670151e-01
  9.216995e-01
  7.268222e-01
  3.425742e-01
  1.419989e-01
  7.598119e-02
  5.644763e-02
  1.785655e-01
  1.052651e-01
  5.567396e-02
  3.712743e-02
  3.567229e-02
  4.767557e-02
  8.774007e-02
  1.773369e-01
  2.547427e-01
  2.724363e-01
  2.361655e-01
  1.699503e-01
  1.001265e-01
  5.467744e-02
  3.245713e-02
  2.397674e-02
  2.612843e-02
  3.842138e-02
  5.739384e-02
  7.099879e-02
  6.994493e-02
  5.887742e-02
  4.968503e-02
  4.389736e-02
  4.138694e-02
  4.722405e-02
  7.782220e-02
  1.666695e-01
  3.015037e-01
  4.668992e-01
  6.206934e-01
  7.122163e-01
  7.554049e-01
  7.717711e-01
  7.633074e-01
  7.045690e-01
  5.400662e-01
  2.942434e-01
  1.208700e-01
  5.200139e-02
  3.356797e-02
  2.987184e-02
  3.118228e-02
  4.140116e-02
  8.847807e-02
  2.618486e-01
  5.720240e-01
  7.561123e-01
  7.879366e-01
  6.937644e-01
  4.180048e-01
  1.520372e-01
  7.323410e-02
  1.123450e-01
  3.163488e-01
  6.600909e-01
  8.572943e-01
  9.314822e-01
  9.430860e-01
  8.922533e-01
  7.400081e-01
  5.170768e-01
  3.391068e-01
  2.470137e-01
  6.336752e-01
  3.637748e-01
  1.405193e-01
  5.558778e-02
  3.505755e-02
  3.452013e-02
  4.324010e-02
  5.967085e-02
  7.246539e-02
  7.227709e-02
  6.041738e-02
  4.334228e-02
  2.747411e-02
  1.766742e-02
  1.450531e-02
  1.921180e-02
  3.953872e-02
  9.053226e-02
  1.658158e-01
  2.050736e-01
  1.708859e-01
  9.805873e-02
  5.709347e-02
  4.436994e-02
  4.654204e-02
  7.373253e-02
  1.903664e-01
  5.168617e-01
  7.747557e-01
  8.776342e-01
  9.228510e-01
  9.442144e-01
  9.541998e-01
  9.584071e-01
  9.566088e-01
  9.401539e-01
  8.797189e-01
  6.967188e-01
  3.215192e-01
  9.870327e-02
  4.205255e-02
  3.130041e-02
  3.366402e-02
  5.682286e-02
  1.717008e-01
  5.733592e-01
  8.691120e-01
  9.556992e-01
  9.672934e-01
  9.295508e-01
  7.549297e-01
  3.090953e-01
  9.602748e-02
  6.064477e-02
  1.085834e-01
  2.587240e-01
  5.250470e-01
  7.642757e-01
  8.902781e-01
  9.329818e-01
  9.213513e-01
  8.787969e-01
  8.294207e-01
  7.695161e-01
  9.097649e-01
  7.394690e-01
  3.394631e-01
  1.011506e-01
  4.288305e-02
  3.408688e-02
  3.617523e-02
  3.912312e-02
  3.864048e-02
  3.403005e-02
  2.747071e-02
  2.090839e-02
  1.572571e-02
  1.335655e-02
  1.658174e-02
  3.648543e-02
  1.127077e-01
  3.176662e-01
  5.864673e-01
  6.833148e-01
  5.553774e-01
  2.576314e-01
  9.643798e-02
  5.455308e-02
  5.648612e-02
  1.112901e-01
  3.463558e-01
  7.950813e-01
  9.482703e-01
  9.830593e-01
  9.907584e-01
  9.927450e-01
  9.937174e-01
  9.946346e-01
  9.948908e-01
  9.919668e-01
  9.751858e-01
  8.964620e-01
  6.032324e-01
  1.759211e-01
  5.667212e-02
  3.429141e-02
  3.673482e-02
  7.183287e-02
  2.465909e-01
  7.580802e-01
  9.561530e-01
  9.974500e-01
  9.999000e-01
  9.838597e-01
  8.753398e-01
  4.438498e-01
  1.233168e-01
  4.767769e-02
  4.277532e-02
  7.421769e-02
  1.607325e-01
  3.505458e-01
  6.607018e-01
  8.690700e-01
  9.467893e-01
  9.661099e-01
  9.671554e-01
  9.567701e-01
  9.787174e-01
  8.944918e-01
  5.769242e-01
  1.744000e-01
  6.981074e-02
  5.950629e-02
  6.589666e-02
  6.635175e-02
  5.516046e-02
  3.850124e-02
  2.630442e-02
  1.923658e-02
  1.532516e-02
  1.506282e-02
  2.556452e-02
  8.117278e-02
  3.045690e-01
  7.109171e-01
  8.997343e-01
  9.359290e-01
  8.492796e-01
  4.984305e-01
  1.540160e-01
  6.564677e-02
  6.186728e-02
  1.292155e-01
  4.170641e-01
  8.612692e-01
  9.791106e-01
  9.990859e-01
  9.999000e-01
  9.986819e-01
  9.984278e-01
  9.991558e-01
  9.999000e-01
  9.999000e-01
  9.954198e-01
  9.521631e-01
  7.407413e-01
  2.302691e-01
  6.790651e-02
  3.687364e-02
  3.838622e-02
  7.644594e-02
  2.651576e-01
  7.874894e-01
  9.661601e-01
  9.999000e-01
  9.999000e-01
  9.855843e-01
  8.812611e-01
  4.531129e-01
  1.241699e-01
  4.325479e-02
  2.666780e-02
  2.760574e-02
  4.500004e-02
  1.040738e-01
  2.820679e-01
  6.422694e-01
  8.849576e-01
  9.667739e-01
  9.902200e-01
  9.944477e-01
  9.815911e-01
  9.213691e-01
  6.843725e-01
  2.676816e-01
  1.681815e-01
  1.983806e-01
  2.360265e-01
  2.313098e-01
  1.707653e-01
  8.828761e-02
  4.085381e-02
  2.310756e-02
  1.682714e-02
  1.790512e-02
  4.033977e-02
  1.593568e-01
  5.829186e-01
  8.956207e-01
  9.800163e-01
  9.862975e-01
  9.133418e-01
  5.852153e-01
  1.728012e-01
  6.596232e-02
  5.664239e-02
  1.078375e-01
  3.330107e-01
  7.782625e-01
  9.377892e-01
  9.730846e-01
  9.795335e-01
  9.824632e-01
  9.866623e-01
  9.912932e-01
  9.951876e-01
  9.971600e-01
  9.910996e-01
  9.432227e-01
  7.215339e-01
  2.239502e-01
  6.789377e-02
  3.795074e-02
  3.847674e-02
  6.843341e-02
  2.164937e-01
  6.815943e-01
  9.169482e-01
  9.732380e-01
  9.768553e-01
  9.437873e-01
  7.859037e-01
  3.331467e-01
  9.615035e-02
  3.805831e-02
  2.347042e-02
  1.870038e-02
  1.947659e-02
  3.366811e-02
  9.428962e-02
  2.972634e-01
  6.843492e-01
  9.020213e-01
  9.717163e-01
  9.897061e-01
  9.168077e-01
  8.368149e-01
  6.227038e-01
  3.893149e-01
  4.834128e-01
  6.689864e-01
  7.615477e-01
  7.471774e-01
  5.835268e-01
  2.725984e-01
  8.599308e-02
  3.242342e-02
  1.892886e-02
  2.129154e-02
  6.050534e-02
  2.571999e-01
  7.622848e-01
  9.533439e-01
  9.912390e-01
  9.763714e-01
  8.656298e-01
  4.671389e-01
  1.338022e-01
  5.391685e-02
  4.527206e-02
  6.966035e-02
  1.750878e-01
  4.697188e-01
  7.261708e-01
  8.217622e-01
  8.590557e-01
  8.896291e-01
  9.206169e-01
  9.442709e-01
  9.582456e-01
  9.614220e-01
  9.410787e-01
  8.427992e-01
  5.284737e-01
  1.594804e-01
  5.854842e-02
  4.081951e-02
  4.252880e-02
  5.882500e-02
  1.318864e-01
  3.895334e-01
  7.021251e-01
  8.219624e-01
  8.327047e-01
  7.529440e-01
  4.985431e-01
  1.817702e-01
  6.757035e-02
  3.697663e-02
  2.596651e-02
  1.974696e-02
  1.643568e-02
  1.820202e-02
  3.562259e-02
  1.066772e-01
  3.250252e-01
  6.754686e-01
  8.617756e-01
  9.229800e-01
  6.201256e-01
  4.878321e-01
  3.488641e-01
  4.118921e-01
  7.478072e-01
  9.087603e-01
  9.564720e-01
  9.537175e-01
  8.765294e-01
  5.871559e-01
  1.678537e-01
  4.699838e-02
  2.149913e-02
  2.642348e-02
  9.211713e-02
  3.920685e-01
  8.467339e-01
  9.676058e-01
  9.778130e-01
  9.209792e-01
  6.977037e-01
  2.621242e-01
  7.922440e-02
  4.012901e-02
  3.628036e-02
  4.423485e-02
  7.224432e-02
  1.439004e-01
  2.329028e-01
  3.055728e-01
  3.836111e-01
  4.971564e-01
  6.267549e-01
  7.209563e-01
  7.696733e-01
  7.758242e-01
  7.130455e-01
  5.115659e-01
  2.325322e-01
  8.794628e-02
  5.636127e-02
  6.368438e-02
  7.647235e-02
  8.305796e-02
  9.461299e-02
  1.480490e-01
  2.440443e-01
  3.134881e-01
  3.231540e-01
  2.707139e-01
  1.788787e-01
  1.044932e-01
  7.630173e-02
  6.044222e-02
  4.318097e-02
  2.851877e-02
  2.019282e-02
  1.731564e-02
  2.093252e-02
  4.062974e-02
  1.049683e-01
  2.558695e-01
  4.727359e-01
  6.224722e-01
  1.669983e-01
  1.377433e-01
  1.475221e-01
  3.505037e-01
  8.164478e-01
  9.642198e-01
  9.962850e-01
  9.970208e-01
  9.576041e-01
  7.551705e-01
  2.300385e-01
  5.774055e-02
  2.375310e-02
  3.573403e-02
  1.449846e-01
  5.713088e-01
  8.975899e-01
  9.646840e-01
  9.347648e-01
  7.683118e-01
  3.778295e-01
  1.162220e-01
  4.567795e-02
  3.457159e-02
  3.545870e-02
  3.729420e-02
  4.107937e-02
  5.114071e-02
  6.416154e-02
  7.553998e-02
  9.013970e-02
  1.163646e-01
  1.546500e-01
  1.945201e-01
  2.250310e-01
  2.343855e-01
  2.089149e-01
  1.465528e-01
  8.361901e-02
  6.417035e-02
  9.929429e-02
  1.840305e-01
  2.509226e-01
  2.520621e-01
  1.898779e-01
  1.171647e-01
  9.209492e-02
  9.274403e-02
  9.518196e-02
  9.903128e-02
  1.244925e-01
  1.802350e-01
  2.167204e-01
  1.953263e-01
  1.267908e-01
  6.298440e-02
  3.178955e-02
  2.134096e-02
  1.953200e-02
  2.398185e-02
  3.930740e-02
  7.398980e-02
  1.266434e-01
  1.677789e-01
  4.860904e-02
  4.824461e-02
  8.396244e-02
  2.871531e-01
  8.018504e-01
  9.679677e-01
  9.999000e-01
  9.999000e-01
  9.643622e-01
  7.697827e-01
  2.346805e-01
  5.772234e-02
  2.622092e-02
  5.466629e-02
  2.304313e-01
  7.216100e-01
  9.268716e-01
  9.441052e-01
  8.299671e-01
  4.700154e-01
  1.531807e-01
  5.419135e-02
  4.077894e-02
  5.009794e-02
  5.706154e-02
  5.258756e-02
  4.231633e-02
  3.513611e-02
  3.165063e-02
  2.965896e-02
  2.940718e-02
  3.253085e-02
  3.947281e-02
  4.829552e-02
  5.618917e-02
  6.013147e-02
  5.761705e-02
  5.018726e-02
  5.059741e-02
  9.408297e-02
  2.751460e-01
  5.963856e-01
  7.610233e-01
  7.557966e-01
  5.775433e-01
  2.583260e-01
  9.264238e-02
  5.224232e-02
  5.414710e-02
  1.008285e-01
  2.738720e-01
  5.578532e-01
  7.045282e-01
  6.673400e-01
  4.477594e-01
  1.903022e-01
  6.508568e-02
  3.013789e-02
  2.229085e-02
  2.209875e-02
  2.573573e-02
  3.307402e-02
  4.274657e-02
  4.931851e-02
  2.838216e-02
  3.075611e-02
  6.046738e-02
  2.155729e-01
  6.996334e-01
  9.320044e-01
  9.853213e-01
  9.828746e-01
  9.183924e-01
  6.499432e-01
  1.825354e-01
  4.855962e-02
  3.423497e-02
  1.024752e-01
  3.951011e-01
  8.250013e-01
  9.385261e-01
  8.968535e-01
  6.329818e-01
  2.174945e-01
  6.736864e-02
  4.825333e-02
  8.473863e-02
  1.456434e-01
  1.748951e-01
  1.422144e-01
  8.263837e-02
  4.514897e-02
  3.055355e-02
  2.506393e-02
  2.325154e-02
  2.417787e-02
  2.717421e-02
  3.009692e-02
  3.129414e-02
  3.086603e-02
  3.038454e-02
  3.323601e-02
  5.445067e-02
  1.643546e-01
  5.663064e-01
  8.752057e-01
  9.587853e-01
  9.557450e-01
  8.599305e-01
  5.251176e-01
  1.517165e-01
  5.732829e-02
  6.185631e-02
  1.759196e-01
  5.802883e-01
  8.652993e-01
  9.422904e-01
  9.307477e-01
  8.167792e-01
  4.796897e-01
  1.393641e-01
  4.615926e-02
  2.745434e-02
  2.562855e-02
  2.811297e-02
  3.099807e-02
  3.217125e-02
  3.082311e-02
  3.443020e-02
  2.945035e-02
  4.403259e-02
  1.269977e-01
  4.295581e-01
  7.672215e-01
  8.814766e-01
  8.717363e-01
  7.284751e-01
  3.622487e-01
  1.028789e-01
  4.089940e-02
  6.438240e-02
  2.248428e-01
  6.489140e-01
  9.013368e-01
  9.372390e-01
  8.168454e-01
  3.820379e-01
  1.049460e-01
  5.122142e-02
  9.841755e-02
  2.773040e-01
  5.202988e-01
  6.140768e-01
  4.900011e-01
  2.415384e-01
  8.655770e-02
  4.042546e-02
  2.954310e-02
  3.000314e-02
  3.847633e-02
  5.214818e-02
  5.978297e-02
  5.491360e-02
  4.211174e-02
  3.245997e-02
  3.322872e-02
  6.220496e-02
  2.148390e-01
  7.194557e-01
  9.506942e-01
  9.999000e-01
  9.987889e-01
  9.434402e-01
  6.941720e-01
  2.041997e-01
  6.816450e-02
  7.663895e-02