# vtk DataFile Version 2.0
time_10.vtk
ASCII
DATASET STRUCTURED_GRID
DIMENSIONS    64    64     1
POINTS    4096 float
  0.000000e+00   0.000000e+00   0.000000e+00
  0.000000e+00   1.000000e+00   0.000000e+00
  0.000000e+00   2.000000e+00   0.000000e+00
  0.000000e+00   3.000000e+00   0.000000e+00
  0.000000e+00   4.000000e+00   0.000000e+00
  0.000000e+00   5.000000e+00   0.000000e+00
  0.000000e+00   6.000000e+00   0.000000e+00
  0.000000e+00   7.000000e+00   0.000000e+00
  0.000000e+00   8.000000e+00   0.000000e+00
  0.000000e+00   9.000000e+00   0.000000e+00
  0.000000e+00   1.000000e+01   0.000000e+00
  0.000000e+00   1.100000e+01   0.000000e+00
  0.000000e+00   1.200000e+01   0.000000e+00
  0.000000e+00   1.300000e+01   0.000000e+00
  0.000000e+00   1.400000e+01   0.000000e+00
  0.000000e+00   1.500000e+01   0.000000e+00
  0.000000e+00   1.600000e+01   0.000000e+00
  0.000000e+00   1.700000e+01   0.000000e+00
  0.000000e+00   1.800000e+01   0.000000e+00
  0.000000e+00   1.900000e+01   0.000000e+00
  0.000000e+00   2.000000e+01   0.000000e+00
  0.000000e+00   2.100000e+01   0.000000e+00
  0.000000e+00   2.200000e+01   0.000000e+00
  0.000000e+00   2.300000e+01   0.000000e+00
  0.000000e+00   2.400000e+01   0.000000e+00
  0.000000e+00   2.500000e+01   0.000000e+00
  0.000000e+00   2.600000e+01   0.000000e+00
  0.000000e+00   2.700000e+01   0.000000e+00
  0.000000e+00   2.800000e+01   0.000000e+00
  0.000000e+00   2.900000e+01   0.000000e+00
  0.000000e+00   3.000000e+01   0.000000e+00
  0.000000e+00   3.100000e+01   0.000000e+00
  0.000000e+00   3.200000e+01   0.000000e+00
  0.000000e+00   3.300000e+01   0.000000e+00
  0.000000e+00   3.400000e+01   0.000000e+00
  0.000000e+00   3.500000e+01   0.000000e+00
  0.000000e+00   3.600000e+01   0.000000e+00
  0.000000e+00   3.700000e+01   0.000000e+00
  0.000000e+00   3.800000e+01   0.000000e+00
  0.000000e+00   3.900000e+01   0.000000e+00
  0.000000e+00   4.000000e+01   0.000000e+00
  0.000000e+00   4.100000e+01   0.000000e+00
  0.000000e+00   4.200000e+01   0.000000e+00
  0.000000e+00   4.300000e+01   0.000000e+00
  0.000000e+00   4.400000e+01   0.000000e+00
  0.000000e+00   4.500000e+01   0.000000e+00
  0.000000e+00   4.600000e+01   0.000000e+00
  0.000000e+00   4.700000e+01   0.000000e+00
  0.000000e+00   4.800000e+01   0.000000e+00
  0.000000e+00   4.900000e+01   0.000000e+00
  0.000000e+00   5.000000e+01   0.000000e+00
  0.000000e+00   5.100000e+01   0.000000e+00
  0.000000e+00   5.200000e+01   0.000000e+00
  0.000000e+00   5.300000e+01   0.000000e+00
  0.000000e+00   5.400000e+01   0.000000e+00
  0.000000e+00   5.500000e+01   0.000000e+00
  0.000000e+00   5.600000e+01   0.000000e+00
  0.000000e+00   5.700000e+01   0.000000e+00
  0.000000e+00   5.800000e+01   0.000000e+00
  0.000000e+00   5.900000e+01   0.000000e+00
  0.000000e+00   6.000000e+01   0.000000e+00
  0.000000e+00   6.100000e+01   0.000000e+00
  0.000000e+00   6.200000e+01   0.000000e+00
  0.000000e+00   6.300000e+01   0.000000e+00
  1.000000e+00   0.000000e+00   0.000000e+00
  1.000000e+00   1.000000e+00   0.000000e+00
  1.000000e+00   2.000000e+00   0.000000e+00
  1.000000e+00   3.000000e+00   0.000000e+00
  1.000000e+00   4.000000e+00   0.000000e+00
  1.000000e+00   5.000000e+00   0.000000e+00
  1.000000e+00   6.000000e+00   0.000000e+00
  1.000000e+00   7.000000e+00   0.000000e+00
  1.000000e+00   8.000000e+00   0.000000e+00
  1.000000e+00   9.000000e+00   0.000000e+00
  1.000000e+00   1.000000e+01   0.000000e+00
  1.000000e+00   1.100000e+01   0.000000e+00
  1.000000e+00   1.200000e+01   0.000000e+00
  1.000000e+00   1.300000e+01   0.000000e+00
  1.000000e+00   1.400000e+01   0.000000e+00
  1.000000e+00   1.500000e+01   0.000000e+00
  1.000000e+00   1.600000e+01   0.000000e+00
  1.000000e+00   1.700000e+01   0.000000e+00
  1.000000e+00   1.800000e+01   0.000000e+00
  1.000000e+00   1.900000e+01   0.000000e+00
  1.000000e+00   2.000000e+01   0.000000e+00
  1.000000e+00   2.100000e+01   0.000000e+00
  1.000000e+00   2.200000e+01   0.000000e+00
  1.000000e+00   2.300000e+01   0.000000e+00
  1.000000e+00   2.400000e+01   0.000000e+00
  1.000000e+00   2.500000e+01   0.000000e+00
  1.000000e+00   2.600000e+01   0.000000e+00
  1.000000e+00   2.700000e+01   0.000000e+00
  1.000000e+00   2.800000e+01   0.000000e+00
  1.000000e+00   2.900000e+01   0.000000e+00
  1.000000e+00   3.000000e+01   0.000000e+00
  1.000000e+00   3.100000e+01   0.000000e+00
  1.000000e+00   3.200000e+01   0.000000e+00
  1.000000e+00   3.300000e+01   0.000000e+00
  1.000000e+00   3.400000e+01   0.000000e+00
  1.000000e+00   3.500000e+01   0.000000e+00
  1.000000e+00   3.600000e+01   0.000000e+00
  1.000000e+00   3.700000e+01   0.000000e+00
  1.000000e+00   3.800000e+01   0.000000e+00
  1.000000e+00   3.900000e+01   0.000000e+00
  1.000000e+00   4.000000e+01   0.000000e+00
  1.000000e+00   4.100000e+01   0.000000e+00
  1.000000e+00   4.200000e+01   0.000000e+00
  1.000000e+00   4.300000e+01   0.000000e+00
  1.000000e+00   4.400000e+01   0.000000e+00
  1.000000e+00   4.500000e+01   0.000000e+00
  1.000000e+00   4.600000e+01   0.000000e+00
  1.000000e+00   4.700000e+01   0.000000e+00
  1.000000e+00   4.800000e+01   0.000000e+00
  1.000000e+00   4.900000e+01   0.000000e+00
  1.000000e+00   5.000000e+01   0.000000e+00
  1.000000e+00   5.100000e+01   0.000000e+00
  1.000000e+00   5.200000e+01   0.000000e+00
  1.000000e+00   5.300000e+01   0.000000e+00
  1.000000e+00   5.400000e+01   0.000000e+00
  1.000000e+00   5.500000e+01   0.000000e+00
  1.000000e+00   5.600000e+01   0.000000e+00
  1.000000e+00   5.700000e+01   0.000000e+00
  1.000000e+00   5.800000e+01   0.000000e+00
  1.000000e+00   5.900000e+01   0.000000e+00
  1.000000e+00   6.000000e+01   0.000000e+00
  1.000000e+00   6.100000e+01   0.000000e+00
  1.000000e+00   6.200000e+01   0.000000e+00
  1.000000e+00   6.300000e+01   0.000000e+00
  2.000000e+00   0.000000e+00   0.000000e+00
  2.000000e+00   1.000000e+00   0.000000e+00
  2.000000e+00   2.000000e+00   0.000000e+00
  2.000000e+00   3.000000e+00   0.000000e+00
  2.000000e+00   4.000000e+00   0.000000e+00
  2.000000e+00   5.000000e+00   0.000000e+00
  2.000000e+00   6.000000e+00   0.000000e+00
  2.000000e+00   7.000000e+00   0.000000e+00
  2.000000e+00   8.000000e+00   0.000000e+00
  2.000000e+00   9.000000e+00   0.000000e+00
  2.000000e+00   1.000000e+01   0.000000e+00
  2.000000e+00   1.100000e+01   0.000000e+00
  2.000000e+00   1.200000e+01   0.000000e+00
  2.000000e+00   1.300000e+01   0.000000e+00
  2.000000e+00   1.400000e+01   0.000000e+00
  2.000000e+00   1.500000e+01   0.000000e+00
  2.000000e+00   1.600000e+01   0.000000e+00
  2.000000e+00   1.700000e+01   0.000000e+00
  2.000000e+00   1.800000e+01   0.000000e+00
  2.000000e+00   1.900000e+01   0.000000e+00
  2.000000e+00   2.000000e+01   0.000000e+00
  2.000000e+00   2.100000e+01   0.000000e+00
  2.000000e+00   2.200000e+01   0.000000e+00
  2.000000e+00   2.300000e+01   0.000000e+00
  2.000000e+00   2.400000e+01   0.000000e+00
  2.000000e+00   2.500000e+01   0.000000e+00
  2.000000e+00   2.600000e+01   0.000000e+00
  2.000000e+00   2.700000e+01   0.000000e+00
  2.000000e+00   2.800000e+01   0.000000e+00
  2.000000e+00   2.900000e+01   0.000000e+00
  2.000000e+00   3.000000e+01   0.000000e+00
  2.000000e+00   3.100000e+01   0.000000e+00
  2.000000e+00   3.200000e+01   0.000000e+00
  2.000000e+00   3.300000e+01   0.000000e+00
  2.000000e+00   3.400000e+01   0.000000e+00
  2.000000e+00   3.500000e+01   0.000000e+00
  2.000000e+00   3.600000e+01   0.000000e+00
  2.000000e+00   3.700000e+01   0.000000e+00
  2.000000e+00   3.800000e+01   0.000000e+00
  2.000000e+00   3.900000e+01   0.000000e+00
  2.000000e+00   4.000000e+01   0.000000e+00
  2.000000e+00   4.100000e+01   0.000000e+00
  2.000000e+00   4.200000e+01   0.000000e+00
  2.000000e+00   4.300000e+01   0.000000e+00
  2.000000e+00   4.400000e+01   0.000000e+00
  2.000000e+00   4.500000e+01   0.000000e+00
  2.000000e+00   4.600000e+01   0.000000e+00
  2.000000e+00   4.700000e+01   0.000000e+00
  2.000000e+00   4.800000e+01   0.000000e+00
  2.000000e+00   4.900000e+01   0.000000e+00
  2.000000e+00   5.000000e+01   0.000000e+00
  2.000000e+00   5.100000e+01   0.000000e+00
  2.000000e+00   5.200000e+01   0.000000e+00
  2.000000e+00   5.300000e+01   0.000000e+00
  2.000000e+00   5.400000e+01   0.000000e+00
  2.000000e+00   5.500000e+01   0.000000e+00
  2.000000e+00   5.600000e+01   0.000000e+00
  2.000000e+00   5.700000e+01   0.000000e+00
  2.000000e+00   5.800000e+01   0.000000e+00
  2.000000e+00   5.900000e+01   0.000000e+00
  2.000000e+00   6.000000e+01   0.000000e+00
  2.000000e+00   6.100000e+01   0.000000e+00
  2.000000e+00   6.200000e+01   0.000000e+00
  2.000000e+00   6.300000e+01   0.000000e+00
  3.000000e+00   0.000000e+00   0.000000e+00
  3.000000e+00   1.000000e+00   0.000000e+00
  3.000000e+00   2.000000e+00   0.000000e+00
  3.000000e+00   3.000000e+00   0.000000e+00
  3.000000e+00   4.000000e+00   0.000000e+00
  3.000000e+00   5.000000e+00   0.000000e+00
  3.000000e+00   6.000000e+00   0.000000e+00
  3.000000e+00   7.000000e+00   0.000000e+00
  3.000000e+00   8.000000e+00   0.000000e+00
  3.000000e+00   9.000000e+00   0.000000e+00
  3.000000e+00   1.000000e+01   0.000000e+00
  3.000000e+00   1.100000e+01   0.000000e+00
  3.000000e+00   1.200000e+01   0.000000e+00
  3.000000e+00   1.300000e+01   0.000000e+00
  3.000000e+00   1.400000e+01   0.000000e+00
  3.000000e+00   1.500000e+01   0.000000e+00
  3.000000e+00   1.600000e+01   0.000000e+00
  3.000000e+00   1.700000e+01   0.000000e+00
  3.000000e+00   1.800000e+01   0.000000e+00
  3.000000e+00   1.900000e+01   0.000000e+00
  3.000000e+00   2.000000e+01   0.000000e+00
  3.000000e+00   2.100000e+01   0.000000e+00
  3.000000e+00   2.200000e+01   0.000000e+00
  3.000000e+00   2.300000e+01   0.000000e+00
  3.000000e+00   2.400000e+01   0.000000e+00
  3.000000e+00   2.500000e+01   0.000000e+00
  3.000000e+00   2.600000e+01   0.000000e+00
[...]
POINT_DATA  4096
SCALARS CON float 1
LOOKUP_TABLE default
  6.895784e-02
  2.473809e-01
  7.628139e-01
  9.598996e-01
  9.999000e-01
  9.937624e-01
  9.163708e-01
  5.864488e-01
  1.639095e-01
  5.275154e-02
  3.095229e-02
  2.811185e-02
  2.993595e-02
  3.344162e-02
  3.648661e-02
  3.701022e-02
  3.439072e-02
  2.974938e-02
  2.505796e-02
  2.118136e-02
  1.806350e-02
  1.584157e-02
  1.437812e-02
  1.432056e-02
  2.079311e-02
  5.793723e-02
  2.175412e-01
  6.233776e-01
  8.921474e-01
  9.733369e-01
  9.936982e-01
  9.985022e-01
  9.994057e-01
  9.990143e-01
  9.967638e-01
  9.867363e-01
  9.427226e-01
  7.696559e-01
  3.415479e-01
  9.127438e-02
  3.249579e-02
  2.251563e-02
  2.287699e-02
  2.585774e-02
  2.926808e-02
  3.153120e-02
  3.185755e-02
  3.031376e-02
  2.778877e-02
  2.587682e-02
  2.627720e-02
  3.138848e-02
  4.705194e-02
  7.905529e-02
  1.185912e-01
  1.401335e-01
  1.248497e-01
  8.692179e-02
  5.249419e-02
  3.169910e-02
  2.309972e-02
  2.100972e-02
  2.261076e-02
  3.086810e-02
  5.155072e-02
  1.686910e-01
  5.712971e-01
  8.644951e-01
  9.473903e-01
  9.374256e-01
  8.087737e-01
  4.154333e-01
  1.227343e-01
  5.192653e-02
  4.684128e-02
  6.334371e-02
  8.918438e-02
  1.199179e-01
  1.440799e-01
  1.496591e-01
  1.338530e-01
  1.041211e-01
  7.407254e-02
  4.994289e-02
  3.177254e-02
  2.142784e-02
  1.667381e-02
  1.454250e-02
  1.536131e-02
  2.727714e-02
  8.562007e-02
  2.990524e-01
  6.999729e-01
  9.127635e-01
  9.773060e-01
  9.944929e-01
  9.989353e-01
  9.999000e-01
  9.996923e-01
  9.972945e-01
  9.823065e-01
  9.047317e-01
  5.981741e-01
  1.630953e-01
  4.682647e-02
  2.517352e-02
  2.223274e-02
  2.266841e-02
  2.351768e-02
  2.409893e-02
  2.426360e-02
  2.409755e-02
  2.393836e-02
  2.473171e-02
  2.957666e-02
  4.964930e-02
  1.175028e-01
  2.628003e-01
  4.306634e-01
  5.175506e-01
  4.627372e-01
  3.113129e-01
  1.629793e-01
  6.891038e-02
  3.159285e-02
  2.107233e-02
  2.023332e-02
  2.589876e-02
  3.238717e-02
  7.981255e-02
  2.443707e-01
  5.321580e-01
  7.044363e-01
  6.860139e-01
  4.703268e-01
  1.927661e-01
  7.773122e-02
  6.581209e-02
  1.192989e-01
  2.272154e-01
  3.566589e-01
  4.936174e-01
  5.896401e-01
  6.108725e-01
  5.540020e-01
  4.340736e-01
  3.021132e-01
  1.876625e-01
  9.303466e-02
  4.178751e-02
  2.319432e-02
  1.684070e-02
  1.459239e-02
  1.673915e-02
  3.429395e-02
  1.100042e-01
  3.521862e-01
  7.324639e-01
  9.196683e-01
  9.781801e-01
  9.947126e-01
  9.992083e-01
  9.999000e-01
  9.999000e-01
  9.950033e-01
  9.529490e-01
  7.435447e-01
  2.227109e-01
  5.980280e-02
  2.827584e-02
  2.313783e-02
  2.270953e-02
  2.296692e-02
  2.317261e-02
  2.322466e-02
  2.321251e-02
  2.355096e-02
  2.608055e-02
  3.939846e-02
  1.017454e-01
  3.357888e-01
  6.947077e-01
  8.586143e-01
  9.017186e-01
  8.792134e-01
  7.761409e-01
  5.174123e-01
  2.071162e-01
  6.593361e-02
  2.641871e-02
  1.845651e-02
  2.033897e-02
  2.054018e-02
  3.521167e-02
  7.564475e-02
  1.485659e-01
  2.063100e-01
  2.023666e-01
  1.401957e-01
  7.780946e-02
  6.494665e-02
  1.289970e-01
  3.702880e-01
  6.831791e-01
  8.307669e-01
  8.904341e-01
  9.165517e-01
  9.215987e-01
  9.076355e-01
  8.717851e-01
  7.991030e-01
  6.272925e-01
  3.193017e-01
  1.087855e-01
  4.010582e-02
  2.179067e-02
  1.617625e-02
  1.446455e-02
  1.802100e-02
  3.975965e-02
  1.248284e-01
  3.744069e-01
  7.374371e-01
  9.166564e-01
  9.757200e-01
  9.937611e-01
  9.991635e-01
  9.999000e-01
  9.970879e-01
  9.602496e-01
  7.681206e-01
  2.386121e-01
  6.454595e-02
  3.017033e-02
  2.423578e-02
  2.345915e-02
  2.349646e-02
  2.354210e-02
  2.346934e-02
  2.338432e-02
  2.395680e-02
  2.865819e-02
  5.538208e-02
  1.882399e-01
  6.353847e-01
  9.045316e-01
  9.753652e-01
  9.885409e-01
  9.824628e-01
  9.493872e-01
  8.334934e-01
  5.114497e-01
  1.638386e-01
  4.616066e-02
  1.949882e-02
  1.614420e-02
  1.429720e-02
  1.922313e-02
  2.937677e-02
  4.483719e-02
  5.762655e-02
  5.920603e-02
  5.101763e-02
  4.763996e-02
  7.927407e-02
  2.447274e-01
  6.984114e-01
  9.144458e-01
  9.706985e-01
  9.844370e-01
  9.884634e-01
  9.890390e-01
  9.869350e-01
  9.808018e-01
  9.632684e-01
  9.008603e-01
  6.862087e-01
  2.586372e-01
  7.466567e-02
  3.009131e-02
  1.903659e-02
  1.526013e-02
  1.431869e-02
  1.892166e-02
  4.239596e-02
  1.274988e-01
  3.635343e-01
  7.122673e-01
  8.972719e-01
  9.643594e-01
  9.873835e-01
  9.934423e-01
  9.848125e-01
  9.256951e-01
  6.762677e-01
  2.000111e-01
  5.834270e-02
  3.015710e-02
  2.510926e-02
  2.436554e-02
  2.432274e-02
  2.427070e-02
  2.407571e-02
  2.386148e-02
  2.454722e-02
  3.115135e-02
  7.010580e-02
  2.621275e-01
  7.852007e-01
  9.626209e-01
  9.970851e-01
  9.999000e-01
  9.992342e-01
  9.895787e-01
  9.476297e-01
  7.856565e-01
  3.678142e-01
  9.836477e-02
  2.772786e-02
  1.422179e-02
  1.109471e-02
  1.278364e-02
  1.677850e-02
  2.180808e-02
  2.634070e-02
  2.916110e-02
  3.163013e-02
  4.216134e-02
  9.695938e-02
  3.405428e-01
  8.332053e-01
  9.734377e-01
  9.980025e-01
  9.999000e-01
  9.999000e-01
  9.998336e-01
  9.998119e-01
  9.995454e-01
  9.966598e-01
  9.754509e-01
  8.611861e-01
  4.424611e-01
  1.196105e-01
  3.994007e-02
  2.224126e-02
  1.700730e-02
  1.467356e-02
  1.438126e-02
  1.938030e-02
  4.160255e-02
  1.158224e-01
  3.108205e-01
  6.280120e-01
  8.306775e-01
  9.173389e-01
  9.408528e-01
  9.123391e-01
  7.769946e-01
  4.184602e-01
  1.232191e-01
  4.498970e-02
  2.876638e-02
  2.573374e-02
  2.531150e-02
  2.530934e-02
  2.523179e-02
  2.495210e-02
  2.458872e-02
  2.519483e-02
  3.267127e-02
  7.816506e-02
  3.001535e-01
  8.299590e-01
  9.754584e-01
  9.996684e-01
  9.999000e-01
  9.999000e-01
  9.975228e-01
  9.820795e-01
  9.131774e-01
  6.538458e-01
  2.171564e-01
  5.354215e-02
  1.672082e-02
  1.164797e-02
  9.702575e-03
  1.194366e-02
  1.520365e-02
  1.853727e-02
  2.177889e-02
  2.626633e-02
  3.956827e-02
  9.963593e-02
  3.612284e-01
  8.539080e-01
  9.810376e-01
  9.999000e-01
  9.999000e-01
  9.999000e-01
  9.999000e-01
  9.999000e-01
  9.999000e-01
  9.999000e-01
  9.898326e-01
  9.068686e-01
  5.378755e-01
  1.453963e-01
  4.581617e-02
  2.454734e-02
  1.875983e-02
  1.617362e-02
  1.473447e-02
  1.492669e-02
  1.966864e-02
  3.767886e-02
  9.019747e-02
  2.113121e-01
  4.116755e-01
  6.185017e-01
  6.927939e-01
  6.155668e-01
  3.844617e-01
  1.627487e-01
  6.175735e-02
  3.381568e-02
  2.744613e-02
  2.630643e-02
  2.631939e-02
  2.649326e-02
  2.652949e-02
  2.627856e-02
  2.578181e-02
  2.605671e-02
  3.303429e-02
  7.787542e-02
  2.989867e-01
  8.293105e-01
  9.745633e-01
  9.988910e-01
  9.999000e-01
  9.999000e-01
  9.989963e-01
  9.926673e-01
  9.635682e-01
  8.377669e-01
  4.451961e-01
  1.233806e-01
  3.109520e-02
  2.315256e-02
  1.062432e-02
  9.921930e-03
  1.225595e-02
  1.532824e-02
  1.865549e-02
  2.314164e-02
  3.459890e-02
  8.298414e-02
  2.963435e-01
  7.932712e-01
  9.602746e-01
  9.941825e-01
  9.991907e-01
  9.997379e-01
  9.997882e-01
  9.999000e-01
  9.999000e-01
  9.979701e-01
  9.793339e-01
  8.738309e-01
  4.692613e-01
  1.281960e-01
  4.345315e-02
  2.513726e-02
  2.012587e-02
  1.789601e-02
  1.655369e-02
  1.609502e-02
  1.748587e-02
  2.297556e-02
  3.695799e-02
  6.697703e-02
  1.190543e-01
  1.799904e-01
  2.056686e-01
  1.761935e-01
  1.116023e-01
  5.953344e-02
  3.583087e-02
  2.851918e-02
  2.692937e-02
  2.698982e-02
  2.749036e-02
  2.809715e-02
  2.865474e-02
  2.884688e-02
  2.833820e-02
  2.788167e-02
  3.281813e-02
  7.021964e-02
  2.623807e-01
  7.895227e-01
  9.629197e-01
  9.959577e-01
  9.999000e-01
  9.999000e-01
  9.991824e-01
  9.961197e-01
  9.837758e-01
  9.307614e-01
  7.241305e-01
  2.966209e-01
  8.170478e-02
  7.369367e-02
  2.507987e-02
  1.318607e-02
  1.192786e-02
  1.383326e-02
  1.672635e-02
  2.048929e-02
  2.829039e-02
  5.728493e-02
  1.843278e-01
  5.860850e-01
  8.630435e-01
  9.501719e-01
  9.730895e-01
  9.792134e-01
  9.809786e-01
  9.809464e-01
  9.781304e-01
  9.655112e-01
  9.128822e-01
  7.192222e-01
  2.885330e-01
  8.501843e-02
  3.582671e-02
  2.449245e-02
  2.113632e-02
  1.967336e-02
  1.921323e-02
  2.056958e-02
  2.610376e-02
  3.827045e-02
  5.540041e-02
  7.343522e-02
  9.014812e-02
  9.963335e-02
  9.233664e-02
  7.025915e-02
  4.770497e-02
  3.389739e-02
  2.821980e-02
  2.680472e-02
  2.702867e-02
  2.786009e-02
  2.909989e-02
  3.099413e-02
  3.382629e-02
  3.648986e-02
  3.657731e-02
  3.397500e-02
  3.410977e-02
  5.822352e-02
  1.974351e-01
  6.711015e-01
  9.253583e-01
  9.860827e-01
  9.977754e-01
  9.994237e-01
  9.989604e-01
  9.971892e-01
  9.917696e-01
  9.712098e-01
  8.886780e-01
  6.192573e-01
  2.394984e-01
  2.532631e-01
  9.300043e-02
  3.748954e-02
  1.995275e-02
  1.575288e-02
  1.632794e-02
  1.870812e-02
  2.305981e-02
  3.559567e-02
  8.363409e-02
  2.479027e-01
  5.396804e-01
  7.446261e-01
  8.225877e-01
  8.498878e-01
  8.592386e-01
  8.581916e-01
  8.435048e-01
  7.957567e-01
  6.536433e-01
  3.578655e-01
  1.270137e-01
  4.889799e-02
  2.891817e-02
  2.370892e-02
  2.203693e-02
  2.172830e-02
  2.370299e-02
  3.297619e-02
  6.305535e-02
  1.272757e-01
  2.057592e-01
  2.621675e-01
  2.846963e-01
  2.652143e-01
  2.006171e-01
  1.138747e-01
  5.636884e-02
  3.377893e-02
  2.753091e-02
  2.669103e-02
  2.748947e-02
  2.907531e-02
  3.203290e-02
  3.866545e-02
  5.252738e-02
  6.882678e-02
  7.277291e-02
  6.037733e-02
  4.447059e-02
  4.803922e-02
  1.201938e-01
  4.249211e-01
  8.147088e-01
  9.522702e-01
  9.876523e-01
  9.961492e-01
  9.977287e-01
  9.971242e-01
  9.947125e-01
  9.870932e-01
  9.592967e-01
  8.597176e-01
  5.899972e-01
  6.546952e-01
  3.396251e-01
  1.481713e-01
  6.305626e-02
  3.047634e-02
  2.037580e-02
  1.888934e-02
  2.040375e-02
  2.469098e-02
  3.775995e-02
  7.616868e-02
  1.512356e-01
  2.328648e-01
  2.947732e-01
  3.356294e-01
  3.561049e-01
  3.540584e-01
  3.271106e-01
  2.740214e-01
  1.953919e-01
  1.066351e-01
  5.139278e-02
  3.115940e-02
  2.513713e-02
  2.335749e-02
  2.303264e-02
  2.455812e-02
  3.294834e-02
  6.956020e-02
  2.008402e-01
  4.663580e-01
  7.024034e-01
  7.972352e-01
  8.172679e-01
  7.834537e-01
  6.496085e-01
  3.664199e-01
  1.382350e-01
  5.256925e-02
  3.127156e-02
  2.756272e-02
  2.824942e-02
  3.104766e-02
  3.881418e-02
  6.350780e-02
  1.307400e-01
  2.171622e-01
  2.406121e-01
  1.807548e-01
  9.224478e-02
  5.199764e-02
  6.737091e-02
  1.956980e-01
  5.467824e-01
  8.381390e-01
  9.477865e-01
  9.822701e-01
  9.926725e-01
  9.954000e-01
  9.952452e-01
  9.927347e-01
  9.842953e-01
  9.559082e-01
  8.679833e-01
  9.053756e-01
  7.661922e-01
  5.058189e-01
  2.388276e-01
  9.471405e-02
  3.909047e-02
  2.350382e-02
  2.046502e-02
  2.093412e-02
  2.368885e-02
  3.093560e-02
  4.436525e-02
  5.988179e-02
  7.294340e-02
  8.232325e-02
  8.749224e-02
  8.763223e-02
  8.212517e-02
  7.104211e-02
  5.551790e-02
  3.936762e-02
  2.914939e-02
  2.497843e-02
  2.363539e-02
  2.338521e-02
  2.414728e-02
  2.849919e-02
  5.004981e-02
  1.512853e-01
  5.067652e-01
  8.268343e-01
  9.378674e-01
  9.676312e-01
  9.725343e-01
  9.619113e-01
  9.129752e-01
  7.407364e-01
  3.434689e-01
  1.001791e-01
  4.035793e-02
  2.939596e-02
  2.931957e-02
  3.430913e-02
  5.385292e-02
  1.346633e-01
  4.005198e-01
  6.849274e-01
  7.433858e-01
  5.859374e-01
  2.552767e-01
  8.559473e-02
  4.846319e-02
  7.820125e-02
  2.168795e-01
  5.227609e-01
  7.985823e-01
  9.245684e-01
  9.711385e-01
  9.875039e-01
  9.928891e-01
  9.939413e-01
  9.921927e-01
  9.852819e-01
  9.639932e-01
  9.774701e-01
  9.441211e-01
  8.574231e-01
  6.512223e-01
  3.087963e-01
  1.015102e-01
  3.852192e-02
  2.371731e-02
  2.055855e-02
  2.009176e-02
  2.076006e-02
  2.245602e-02
  2.464330e-02
  2.677110e-02
  2.870295e-02
  3.030375e-02
  3.122781e-02
  3.112344e-02
  2.984654e-02
  2.762498e-02
  2.524262e-02
  2.373466e-02
  2.317464e-02
  2.314138e-02
  2.352696e-02
  2.513082e-02
  3.257343e-02
  6.991779e-02
  2.465583e-01
  7.462045e-01
  9.469888e-01
  9.913472e-01
  9.986059e-01
  9.992824e-01
  9.967636e-01
  9.812709e-01
  9.032541e-01
  6.003542e-01
  1.688702e-01
  5.298033e-02
  3.173752e-02
  3.046540e-02
  3.814130e-02
  7.414963e-02
  2.377988e-01
  7.107100e-01
  9.235123e-01
  9.541403e-01
  8.630536e-01
  5.063744e-01
  1.442072e-01
  5.024537e-02
  3.881254e-02
  7.016964e-02
  1.757224e-01
  4.094896e-01
  7.107711e-01
  8.805466e-01
  9.527289e-01
  9.805354e-01
  9.905234e-01
  9.936295e-01
  9.934753e-01
  9.896423e-01
  9.951796e-01
  9.892361e-01
  9.685911e-01
  8.977615e-01
  6.675439e-01
  2.484087e-01
  7.250335e-02
  3.106201e-02
  2.194066e-02
  1.949183e-02
  1.851968e-02
  1.813576e-02
  1.830713e-02
  1.927098e-02
  2.129170e-02
  2.412653e-02
  2.666091e-02
  2.783761e-02
  2.725248e-02
  2.547938e-02
  2.384158e-02
  2.300953e-02
  2.281019e-02
  2.297183e-02
  2.355137e-02
  2.559837e-02
  3.491833e-02
  8.200528e-02
  3.015926e-01
  8.244309e-01
  9.748645e-01
  9.999000e-01
  9.999000e-01
  9.999000e-01
  9.999000e-01
  9.947597e-01
  9.476395e-01
  7.196532e-01
  2.116280e-01
  6.109878e-02
  3.328020e-02
  3.119895e-02
  4.020958e-02
  8.460675e-02
  2.879114e-01
  8.036322e-01
  9.713621e-01
  9.923963e-01
  9.263340e-01
  6.185338e-01
  1.753749e-01
  5.391282e-02
  2.917404e-02
  2.972300e-02
  5.193752e-02
  1.198019e-01
  2.838586e-01
  5.754187e-01
  8.107965e-01
  9.262724e-01
  9.719536e-01
  9.884970e-01
  9.943517e-01
  9.961264e-01
  9.990387e-01
  9.996125e-01
  9.957030e-01
  9.727531e-01
  8.577542e-01
  4.516405e-01
  1.226600e-01
  4.131339e-02
  2.407402e-02
  1.968155e-02
  1.804556e-02
  1.760406e-02
  1.888377e-02
  2.347567e-02
  3.304975e-02
  4.649301e-02
  5.722473e-02
  5.983684e-02
  5.281806e-02
  4.005668e-02
  2.979482e-02
  2.485226e-02
  2.317748e-02
  2.287970e-02
  2.332835e-02
  2.530369e-02
  3.433979e-02
  7.991592e-02
  2.931976e-01
  8.153805e-01
  9.721177e-01
  9.994909e-01
  9.999000e-01
  9.999000e-01
  9.999000e-01
  9.924752e-01
  9.391790e-01
  6.942413e-01
  2.013185e-01
  5.926215e-02
  3.329035e-02
  3.162645e-02
  3.999094e-02
  7.849392e-02
  2.523377e-01
  7.354767e-01
  9.325134e-01
  9.570861e-01
  8.654342e-01
  5.103234e-01
  1.460661e-01
  4.926558e-02
  2.725143e-02
  2.158207e-02
  2.288244e-02
  3.570682e-02
  7.691080e-02
  1.861375e-01
  4.195063e-01
  7.227503e-01
  8.932328e-01
  9.617308e-01
  9.865454e-01
  9.956035e-01
  9.957515e-01
  9.999000e-01
  9.999000e-01
  9.905700e-01
  9.152964e-01
  5.785501e-01
  1.581276e-01
  4.852021e-02
  2.554367e-02
  1.987783e-02
  1.827147e-02
  1.967842e-02
  2.789170e-02
  5.184257e-02
  1.015707e-01
  1.713142e-01
  2.219369e-01
  2.293555e-01
  1.875971e-01
  1.139907e-01
  5.722690e-02
  3.251389e-02
  2.481904e-02
  2.289445e-02
  2.284091e-02
  2.429064e-02
  3.110120e-02
  6.489801e-02
  2.256097e-01
  7.089587e-01
  9.332897e-01
  9.868555e-01
  9.966566e-01
  9.973007e-01
  9.924537e-01
  9.687296e-01
  8.665615e-01
  5.181295e-01
  1.445949e-01
  4.919729e-02
  3.275349e-02
  3.376203e-02
  4.224515e-02
  6.749484e-02
  1.638945e-01
  4.667131e-01
  7.254506e-01
  7.620174e-01
  5.990610e-01
  2.625727e-01
  8.783052e-02
  4.050942e-02
  2.757663e-02
  2.213197e-02
  1.894642e-02
  1.859751e-02
  2.517849e-02
  5.010282e-02
  1.230473e-01
  3.073720e-01
  6.289342e-01
  8.523420e-01
  9.480166e-01
  9.831457e-01
  9.723135e-01
  9.905569e-01
  9.950018e-01
  9.807733e-01
  8.895128e-01
  5.257893e-01
  1.447075e-01
  4.638388e-02
  2.514230e-02
  1.991560e-02
  2.009170e-02
  2.951841e-02
  6.738100e-02
  1.758541e-01
  3.852121e-01
  6.297420e-01
  7.501604e-01
  7.602257e-01
  6.574759e-01
  4.003646e-01
  1.597409e-01
  5.724817e-02
  2.962007e-02
  2.327225e-02
  2.216357e-02
  2.285342e-02
  2.672212e-02
  4.485059e-02
  1.287210e-01
  4.330326e-01
  7.820904e-01
  9.189597e-01
  9.578908e-01
  9.622284e-01
  9.415323e-01
  8.648762e-01
  6.435312e-01
  2.612964e-01
  8.087527e-02
  3.894974e-02
  3.528540e-02
  4.568312e-02
  6.657082e-02
  9.045303e-02
  1.228815e-01
  1.926648e-01
  2.634977e-01
  2.656428e-01
  1.927403e-01
  9.868090e-02
  5.250570e-02
  3.773814e-02
  3.196520e-02
  2.710882e-02
  2.218386e-02
  1.819212e-02
  1.637729e-02
  1.941303e-02
  3.529703e-02
  8.724103e-02
  2.309909e-01
  5.227835e-01
  7.945199e-01
  9.234282e-01
  8.554970e-01
  9.261110e-01
  9.425148e-01
  9.032756e-01
  7.315232e-01
  3.214665e-01
  9.444339e-02
  3.689170e-02
  2.321696e-02
  2.043021e-02
  2.682988e-02
  6.343853e-02
  2.027571e-01
  5.256688e-01
  8.010786e-01
  9.171479e-01
  9.555169e-01
  9.583380e-01
  9.216304e-01
  7.772690e-01
  4.039867e-01
  1.150101e-01
  3.981007e-02
  2.425728e-02
  2.138466e-02
  2.134342e-02
  2.300516e-02
  2.999953e-02
  5.876966e-02
  1.611478e-01
  3.872952e-01
  6.417985e-01
  7.591944e-01
  7.751419e-01
  7.072246e-01
  5.127046e-01
  2.565968e-01
  9.895146e-02
  4.491839e-02
  3.591945e-02
  4.943004e-02
  9.814178e-02
  1.917667e-01
  2.609037e-01
  2.557135e-01
  1.859323e-01
  1.221254e-01
  9.258158e-02
  7.059861e-02
  5.333693e-02
  4.883313e-02
  5.197441e-02
  5.204753e-02
  4.396380e-02
  3.249769e-02
  2.349735e-02
  1.807213e-02
  1.546432e-02
  1.677210e-02
  2.760439e-02
  6.470095e-02
  1.682766e-01
  3.947451e-01
  6.913185e-01
  4.474795e-01
  6.359589e-01
  6.904056e-01
  5.919101e-01
  3.436222e-01
  1.325048e-01
  5.079215e-02
  2.765811e-02
  2.129358e-02
  2.290533e-02
  4.517006e-02
  1.525460e-01
  4.950067e-01
  8.306066e-01
  9.513370e-01
  9.862387e-01
  9.958166e-01
  9.966537e-01
  9.854787e-01
  9.232438e-01
  6.665869e-01
  1.922031e-01
  5.298861e-02
  2.540144e-02
  2.048400e-02
  1.992142e-02
  2.051717e-02
  2.272275e-02
  3.033761e-02
  5.389579e-02
  1.064061e-01
  1.781040e-01
  2.273638e-01
  2.360977e-01
  2.031404e-01
  1.387442e-01
  7.617901e-02
  4.246306e-02
  3.327118e-02
  4.229962e-02
  9.215867e-02
  2.775946e-01
  6.076618e-01
  7.584568e-01
  7.102548e-01
  4.394672e-01
  1.555976e-01
  6.894583e-02
  5.044423e-02
  5.599717e-02
  8.606382e-02
  1.292428e-01
  1.459687e-01
  1.157623e-01
  6.863256e-02
  3.727336e-02
  2.375470e-02
  1.792225e-02
  1.537047e-02
  1.599702e-02
  2.338824e-02
  4.774863e-02
  1.110427e-01
  2.428913e-01
  1.150923e-01
  1.703515e-01
  1.917856e-01
  1.618628e-01
  9.898544e-02
  5.076161e-02
  2.971202e-02
  2.210342e-02
  2.044685e-02
  2.908884e-02
  8.350377e-02
  3.227700e-01
  7.676910e-01
  9.450028e-01
  9.891221e-01
  9.987104e-01
  9.999000e-01
  9.999000e-01
  9.969838e-01
  9.622596e-01
  7.793069e-01
  2.436051e-01
  6.168462e-02
  2.561716e-02
  1.936090e-02
  1.858159e-02
  1.884172e-02
  1.957016e-02
  2.141505e-02
  2.618687e-02
  3.588327e-02
  4.887441e-02
  5.839886e-02
  6.033885e-02
  5.426980e-02
  4.303720e-02
  3.291884e-02
  2.869147e-02
  3.213008e-02
  5.459525e-02
  1.604957e-01
  5.489785e-01
  8.753217e-01
  9.562353e-01
  9.242660e-01
  7.105054e-01
  2.383156e-01
  8.121454e-02
  5.897817e-02
  9.975840e-02
  2.454434e-01
  4.391637e-01
  5.139566e-01
  4.011707e-01
  2.047758e-01
  7.625197e-02
  3.468476e-02
  2.237172e-02
  1.784452e-02
  1.597591e-02
  1.642735e-02
  2.114035e-02
  3.475051e-02
  6.454943e-02
  3.679275e-02
  4.745040e-02
  5.211114e-02
  4.722627e-02
  3.618397e-02
  2.679786e-02
  2.160014e-02
  1.924961e-02
  2.082236e-02
  3.958224e-02
  1.451192e-01
  5.598362e-01
  8.949628e-01
  9.809892e-01
  9.979281e-01
  9.999000e-01
  9.999000e-01
  9.999000e-01
  9.978284e-01
  9.684799e-01
  8.025779e-01
  2.562317e-01
  6.263224e-02
  2.444777e-02
  1.801984e-02
  1.731819e-02
  1.759197e-02
  1.805617e-02
  1.875044e-02
  2.000992e-02
  2.213134e-02
  2.474420e-02
  2.673841e-02
  2.739618e-02
  2.671534e-02
  2.540976e-02
  2.480414e-02
  2.625007e-02
  3.280563e-02
  6.107688e-02
  1.941983e-01
  6.576646e-01
  9.335103e-01
  9.903190e-01
  9.622152e-01
  7.761327e-01
  2.689853e-01
  9.041710e-02
  7.980650e-02