# vtk DataFile Version 2.0
time_10.vtk
ASCII
DATASET STRUCTURED_GRID
DIMENSIONS    64    64     1
POINTS    4096 float
  0.000000e+00   0.000000e+00   0.000000e+00
  0.000000e+00   1.000000e+00   0.000000e+00
  0.000000e+00   2.000000e+00   0.000000e+00
  0.000000e+00   3.000000e+00   0.000000e+00
  0.000000e+00   4.000000e+00   0.000000e+00
  0.000000e+00   5.000000e+00   0.000000e+00
  0.000000e+00   6.000000e+00   0.000000e+00
  0.000000e+00   7.000000e+00   0.000000e+00
  0.000000e+00   8.000000e+00   0.000000e+00
  0.000000e+00   9.000000e+00   0.000000e+00
  0.000000e+00   1.000000e+01   0.000000e+00
  0.000000e+00   1.100000e+01   0.000000e+00
  0.000000e+00   1.200000e+01   0.000000e+00
  0.000000e+00   1.300000e+01   0.000000e+00
  0.000000e+00   1.400000e+01   0.000000e+00
  0.000000e+00   1.500000e+01   0.000000e+00
  0.000000e+00   1.600000e+01   0.000000e+00
  0.000000e+00   1.700000e+01   0.000000e+00
  0.000000e+00   1.800000e+01   0.000000e+00
  0.000000e+00   1.900000e+01   0.000000e+00
  0.000000e+00   2.000000e+01   0.000000e+00
  0.000000e+00   2.100000e+01   0.000000e+00
  0.000000e+00   2.200000e+01   0.000000e+00
  0.000000e+00   2.300000e+01   0.000000e+00
  0.000000e+00   2.400000e+01   0.000000e+00
  0.000000e+00   2.500000e+01   0.000000e+00
  0.000000e+00   2.600000e+01   0.000000e+00
  0.000000e+00   2.700000e+01   0.000000e+00
  0.000000e+00   2.800000e+01   0.000000e+00
  0.000000e+00   2.900000e+01   0.000000e+00
  0.000000e+00   3.000000e+01   0.000000e+00
  0.000000e+00   3.100000e+01   0.000000e+00
  0.000000e+00   3.200000e+01   0.000000e+00
  0.000000e+00   3.300000e+01   0.000000e+00
  0.000000e+00   3.400000e+01   0.000000e+00
  0.000000e+00   3.500000e+01   0.000000e+00
  0.000000e+00   3.600000e+01   0.000000e+00
  0.000000e+00   3.700000e+01   0.000000e+00
  0.000000e+00   3.800000e+01   0.000000e+00
  0.000000e+00   3.900000e+01   0.000000e+00
  0.000000e+00   4.000000e+01   0.000000e+00
  0.000000e+00   4.100000e+01   0.000000e+00
  0.000000e+00   4.200000e+01   0.000000e+00
  0.000000e+00   4.300000e+01   0.000000e+00
  0.000000e+00   4.400000e+01   0.000000e+00
  0.000000e+00   4.500000e+01   0.000000e+00
  0.000000e+00   4.600000e+01   0.000000e+00
  0.000000e+00   4.700000e+01   0.000000e+00
  0.000000e+00   4.800000e+01   0.000000e+00
  0.000000e+00   4.900000e+01   0.000000e+00
  0.000000e+00   5.000000e+01   0.000000e+00
  0.000000e+00   5.100000e+01   0.000000e+00
  0.000000e+00   5.200000e+01   0.000000e+00
  0.000000e+00   5.300000e+01   0.000000e+00
  0.000000e+00   5.400000e+01   0.000000e+00
  0.000000e+00   5.500000e+01   0.000000e+00
  0.000000e+00   5.600000e+01   0.000000e+00
  0.000000e+00   5.700000e+01   0.000000e+00
  0.000000e+00   5.800000e+01   0.000000e+00
  0.000000e+00   5.900000e+01   0.000000e+00
  0.000000e+00   6.000000e+01   0.000000e+00
  0.000000e+00   6.100000e+01   0.000000e+00
  0.000000e+00   6.200000e+01   0.000000e+00
  0.000000e+00   6.300000e+01   0.000000e+00
  1.000000e+00   0.000000e+00   0.000000e+00
  1.000000e+00   1.000000e+00   0.000000e+00
  1.000000e+00   2.000000e+00   0.000000e+00
  1.000000e+00   3.000000e+00   0.000000e+00
  1.000000e+00   4.000000e+00   0.000000e+00
  1.000000e+00   5.000000e+00   0.000000e+00
  1.000000e+00   6.000000e+00   0.000000e+00
  1.000000e+00   7.000000e+00   0.000000e+00
  1.000000e+00   8.000000e+00   0.000000e+00
  1.000000e+00   9.000000e+00   0.000000e+00
  1.000000e+00   1.000000e+01   0.000000e+00
  1.000000e+00   1.100000e+01   0.000000e+00
  1.000000e+00   1.200000e+01   0.000000e+00
  1.000000e+00   1.300000e+01   0.000000e+00
  1.000000e+00   1.400000e+01   0.000000e+00
  1.000000e+00   1.500000e+01   0.000000e+00
  1.000000e+00   1.600000e+01   0.000000e+00
  1.000000e+00   1.700000e+01   0.000000e+00
  1.000000e+00   1.800000e+01   0.000000e+00
  1.000000e+00   1.900000e+01   0.000000e+00
  1.000000e+00   2.000000e+01   0.000000e+00
  1.000000e+00   2.100000e+01   0.000000e+00
  1.000000e+00   2.200000e+01   0.000000e+00
  1.000000e+00   2.300000e+01   0.000000e+00
  1.000000e+00   2.400000e+01   0.000000e+00
  1.000000e+00   2.500000e+01   0.000000e+00
  1.000000e+00   2.600000e+01   0.000000e+00
  1.000000e+00   2.700000e+01   0.000000e+00
  1.000000e+00   2.800000e+01   0.000000e+00
  1.000000e+00   2.900000e+01   0.000000e+00
  1.000000e+00   3.000000e+01   0.000000e+00
  1.000000e+00   3.100000e+01   0.000000e+00
  1.000000e+00   3.200000e+01   0.000000e+00
  1.000000e+00   3.300000e+01   0.000000e+00
  1.000000e+00   3.400000e+01   0.000000e+00
  1.000000e+00   3.500000e+01   0.000000e+00
  1.000000e+00   3.600000e+01   0.000000e+00
  1.000000e+00   3.700000e+01   0.000000e+00
  1.000000e+00   3.800000e+01   0.000000e+00
  1.000000e+00   3.900000e+01   0.000000e+00
  1.000000e+00   4.000000e+01   0.000000e+00
  1.000000e+00   4.100000e+01   0.000000e+00
  1.000000e+00   4.200000e+01   0.000000e+00
  1.000000e+00   4.300000e+01   0.000000e+00
  1.000000e+00   4.400000e+01   0.000000e+00
  1.000000e+00   4.500000e+01   0.000000e+00
  1.000000e+00   4.600000e+01   0.000000e+00
  1.000000e+00   4.700000e+01   0.000000e+00
  1.000000e+00   4.800000e+01   0.000000e+00
  1.000000e+00   4.900000e+01   0.000000e+00
  1.000000e+00   5.000000e+01   0.000000e+00
  1.000000e+00   5.100000e+01   0.000000e+00
  1.000000e+00   5.200000e+01   0.000000e+00
  1.000000e+00   5.300000e+01   0.000000e+00
  1.000000e+00   5.400000e+01   0.000000e+00
  1.000000e+00   5.500000e+01   0.000000e+00
  1.000000e+00   5.600000e+01   0.000000e+00
  1.000000e+00   5.700000e+01   0.000000e+00
  1.000000e+00   5.800000e+01   0.000000e+00
  1.000000e+00   5.900000e+01   0.000000e+00
  1.000000e+00   6.000000e+01   0.000000e+00
  1.000000e+00   6.100000e+01   0.000000e+00
  1.000000e+00   6.200000e+01   0.000000e+00
  1.000000e+00   6.300000e+01   0.000000e+00
  2.000000e+00   0.000000e+00   0.000000e+00
  2.000000e+00   1.000000e+00   0.000000e+00
  2.000000e+00   2.000000e+00   0.000000e+00
  2.000000e+00   3.000000e+00   0.000000e+00
  2.000000e+00   4.000000e+00   0.000000e+00
  2.000000e+00   5.000000e+00   0.000000e+00
  2.000000e+00   6.000000e+00   0.000000e+00
  2.000000e+00   7.000000e+00   0.000000e+00
  2.000000e+00   8.000000e+00   0.000000e+00
  2.000000e+00   9.000000e+00   0.000000e+00
  2.000000e+00   1.000000e+01   0.000000e+00
  2.000000e+00   1.100000e+01   0.000000e+00
  2.000000e+00   1.200000e+01   0.000000e+00
  2.000000e+00   1.300000e+01   0.000000e+00
  2.000000e+00   1.400000e+01   0.000000e+00
  2.000000e+00   1.500000e+01   0.000000e+00
  2.000000e+00   1.600000e+01   0.000000e+00
  2.000000e+00   1.700000e+01   0.000000e+00
  2.000000e+00   1.800000e+01   0.000000e+00
  2.000000e+00   1.900000e+01   0.000000e+00
  2.000000e+00   2.000000e+01   0.000000e+00
  2.000000e+00   2.100000e+01   0.000000e+00
  2.000000e+00   2.200000e+01   0.000000e+00
  2.000000e+00   2.300000e+01   0.000000e+00
  2.000000e+00   2.400000e+01   0.000000e+00
  2.000000e+00   2.500000e+01   0.000000e+00
  2.000000e+00   2.600000e+01   0.000000e+00
  2.000000e+00   2.700000e+01   0.000000e+00
  2.000000e+00   2.800000e+01   0.000000e+00
  2.000000e+00   2.900000e+01   0.000000e+00
  2.000000e+00   3.000000e+01   0.000000e+00
  2.000000e+00   3.100000e+01   0.000000e+00
  2.000000e+00   3.200000e+01   0.000000e+00
  2.000000e+00   3.300000e+01   0.000000e+00
  2.000000e+00   3.400000e+01   0.000000e+00
  2.000000e+00   3.500000e+01   0.000000e+00
  2.000000e+00   3.600000e+01   0.000000e+00
  2.000000e+00   3.700000e+01   0.000000e+00
  2.000000e+00   3.800000e+01   0.000000e+00
  2.000000e+00   3.900000e+01   0.000000e+00
  2.000000e+00   4.000000e+01   0.000000e+00
  2.000000e+00   4.100000e+01   0.000000e+00
  2.000000e+00   4.200000e+01   0.000000e+00
  2.000000e+00   4.300000e+01   0.000000e+00
  2.000000e+00   4.400000e+01   0.000000e+00
  2.000000e+00   4.500000e+01   0.000000e+00
  2.000000e+00   4.600000e+01   0.000000e+00
  2.000000e+00   4.700000e+01   0.000000e+00
  2.000000e+00   4.800000e+01   0.000000e+00
  2.000000e+00   4.900000e+01   0.000000e+00
  2.000000e+00   5.000000e+01   0.000000e+00
  2.000000e+00   5.100000e+01   0.000000e+00
  2.000000e+00   5.200000e+01   0.000000e+00
  2.000000e+00   5.300000e+01   0.000000e+00
  2.000000e+00   5.400000e+01   0.000000e+00
  2.000000e+00   5.500000e+01   0.000000e+00
  2.000000e+00   5.600000e+01   0.000000e+00
  2.000000e+00   5.700000e+01   0.000000e+00
  2.000000e+00   5.800000e+01   0.000000e+00
  2.000000e+00   5.900000e+01   0.000000e+00
  2.000000e+00   6.000000e+01   0.000000e+00
  2.000000e+00   6.100000e+01   0.000000e+00
  2.000000e+00   6.200000e+01   0.000000e+00
  2.000000e+00   6.300000e+01   0.000000e+00
  3.000000e+00   0.000000e+00   0.000000e+00
  3.000000e+00   1.000000e+00   0.000000e+00
  3.000000e+00   2.000000e+00   0.000000e+00
  3.000000e+00   3.000000e+00   0.000000e+00
  3.000000e+00   4.000000e+00   0.000000e+00
  3.000000e+00   5.000000e+00   0.000000e+00
  3.000000e+00   6.000000e+00   0.000000e+00
  3.000000e+00   7.000000e+00   0.000000e+00
  3.000000e+00   8.000000e+00   0.000000e+00
  3.000000e+00   9.000000e+00   0.000000e+00
  3.000000e+00   1.000000e+01   0.000000e+00
  3.000000e+00   1.100000e+01   0.000000e+00
  3.000000e+00   1.200000e+01   0.000000e+00
  3.000000e+00   1.300000e+01   0.000000e+00
  3.000000e+00   1.400000e+01   0.000000e+00
  3.000000e+00   1.500000e+01   0.000000e+00
  3.000000e+00   1.600000e+01   0.000000e+00
  3.000000e+00   1.700000e+01   0.000000e+00
  3.000000e+00   1.800000e+01   0.000000e+00
  3.000000e+00   1.900000e+01   0.000000e+00
  3.000000e+00   2.000000e+01   0.000000e+00
  3.000000e+00   2.100000e+01   0.000000e+00
  3.000000e+00   2.200000e+01   0.000000e+00
  3.000000e+00   2.300000e+01   0.000000e+00
  3.000000e+00   2.400000e+01   0.000000e+00
  3.000000e+00   2.500000e+01   0.000000e+00
  3.000000e+00   2.600000e+01   0.000000e+00
[...]
POINT_DATA  4096
SCALARS CON float 1
LOOKUP_TABLE default
  7.469604e-01
  9.544523e-01
  9.964184e-01
  9.999000e-01
  9.990932e-01
  9.915095e-01
  9.588757e-01
  8.203236e-01
  4.007181e-01
  1.056878e-01
  3.364879e-02
  1.837344e-02
  1.485472e-02
  1.472926e-02
  1.717783e-02
  2.244328e-02
  2.947666e-02
  3.544646e-02
  3.844019e-02
  3.920174e-02
  3.873154e-02
  3.663079e-02
  3.273134e-02
  2.819222e-02
  2.698359e-02
  4.113259e-02
  1.109239e-01
  3.354796e-01
  7.010742e-01
  8.962817e-01
  9.573572e-01
  9.640710e-01
  9.407554e-01
  8.934066e-01
  8.325478e-01
  7.663404e-01
  6.575461e-01
  4.598896e-01
  2.518850e-01
  1.127658e-01
  4.898647e-02
  3.011520e-02
  2.881135e-02
  4.108142e-02
  7.841163e-02
  1.383727e-01
  1.691991e-01
  1.363439e-01
  7.908234e-02
  4.890441e-02
  4.283182e-02
  6.606164e-02
  1.839554e-01
  5.331659e-01
  7.903736e-01
  8.585793e-01
  8.184974e-01
  6.288280e-01
  2.713258e-01
  8.305658e-02
  3.606167e-02
  3.242755e-02
  6.463754e-02
  2.317824e-01
  7.649212e-01
  9.586164e-01
  9.957504e-01
  9.962374e-01
  9.852691e-01
  9.536442e-01
  8.563643e-01
  5.787466e-01
  2.002322e-01
  6.105123e-02
  2.881904e-02
  2.166383e-02
  1.999727e-02
  2.101123e-02
  2.573863e-02
  3.518626e-02
  4.809420e-02
  6.220640e-02
  7.589294e-02
  8.726393e-02
  9.283035e-02
  8.865510e-02
  7.392492e-02
  5.287041e-02
  3.494434e-02
  2.953426e-02
  4.531995e-02
  1.182484e-01
  3.336734e-01
  6.855878e-01
  8.870986e-01
  9.566925e-01
  9.741066e-01
  9.731947e-01
  9.656298e-01
  9.536443e-01
  9.268888e-01
  8.578005e-01
  6.868408e-01
  3.519780e-01
  1.172127e-01
  4.975388e-02
  4.536358e-02
  8.920550e-02
  2.457820e-01
  4.905625e-01
  5.919589e-01
  4.536241e-01
  2.016665e-01
  8.103624e-02
  5.523765e-02
  9.741317e-02
  3.245749e-01
  7.897171e-01
  9.502822e-01
  9.813583e-01
  9.668492e-01
  8.747236e-01
  5.508966e-01
  1.526531e-01
  4.787310e-02
  3.479366e-02
  6.839389e-02
  2.447929e-01
  6.240377e-01
  8.886670e-01
  9.544983e-01
  9.531793e-01
  9.116611e-01
  8.024274e-01
  5.634215e-01
  2.547733e-01
  1.004300e-01
  6.172486e-02
  5.738581e-02
  5.894243e-02
  6.232917e-02
  7.203134e-02
  9.604313e-02
  1.386432e-01
  1.906718e-01
  2.428089e-01
  2.926751e-01
  3.348763e-01
  3.548901e-01
  3.353518e-01
  2.692818e-01
  1.682173e-01
  7.683908e-02
  3.777003e-02
  2.897061e-02
  4.377396e-02
  1.107381e-01
  3.071047e-01
  6.536818e-01
  8.736727e-01
  9.559882e-01
  9.822594e-01
  9.903785e-01
  9.922916e-01
  9.890995e-01
  9.739302e-01
  9.131652e-01
  6.940158e-01
  2.540781e-01
  8.678470e-02
  7.304429e-02
  1.815391e-01
  5.741615e-01
  8.576715e-01
  9.156183e-01
  8.105377e-01
  4.219789e-01
  1.332671e-01
  6.970064e-02
  1.262742e-01
  4.434912e-01
  8.753759e-01
  9.830756e-01
  9.999000e-01
  9.954780e-01
  9.490395e-01
  7.327830e-01
  2.169040e-01
  5.786890e-02
  3.341563e-02
  5.707044e-02
  1.878981e-01
  3.013520e-01
  6.068940e-01
  7.465618e-01
  7.395460e-01
  6.126298e-01
  3.830359e-01
  2.040698e-01
  1.259034e-01
  1.373763e-01
  1.897856e-01
  2.326457e-01
  2.580904e-01
  2.803645e-01
  3.247900e-01
  4.226469e-01
  5.725214e-01
  7.019054e-01
  7.787507e-01
  8.221972e-01
  8.478068e-01
  8.583941e-01
  8.452800e-01
  7.737233e-01
  5.487294e-01
  2.130106e-01
  6.956387e-02
  3.173906e-02
  2.512725e-02
  3.856815e-02
  9.713639e-02
  2.721384e-01
  6.096076e-01
  8.533079e-01
  9.513346e-01
  9.850140e-01
  9.965678e-01
  9.999000e-01
  9.993873e-01
  9.758810e-01
  8.476514e-01
  3.945769e-01
  1.264298e-01
  9.519379e-02
  2.411993e-01
  7.232840e-01
  9.457042e-01
  9.800169e-01
  8.966206e-01
  5.252800e-01
  1.581193e-01
  7.486744e-02
  1.372722e-01
  4.923986e-01
  8.948386e-01
  9.867669e-01
  9.999000e-01
  9.985881e-01
  9.666276e-01
  7.959427e-01
  2.518264e-01
  6.153411e-02
  2.863676e-02
  3.806793e-02
  9.713308e-02
  9.356518e-02
  1.748925e-01
  2.256271e-01
  2.190046e-01
  1.693475e-01
  1.132885e-01
  1.046729e-01
  2.027571e-01
  4.358796e-01
  6.675859e-01
  7.716832e-01
  8.058203e-01
  8.191249e-01
  8.350119e-01
  8.642799e-01
  9.030096e-01
  9.353764e-01
  9.560188e-01
  9.689411e-01
  9.774806e-01
  9.822098e-01
  9.801642e-01
  9.553764e-01
  8.321803e-01
  4.279737e-01
  1.212369e-01
  4.176774e-02
  2.307419e-02
  2.045237e-02
  3.246916e-02
  8.228304e-02
  2.327897e-01
  5.466972e-01
  8.181416e-01
  9.379208e-01
  9.810218e-01
  9.963104e-01
  9.999000e-01
  9.829504e-01
  8.719033e-01
  4.361172e-01
  1.380573e-01
  9.248925e-02
  2.079207e-01
  6.277724e-01
  8.848496e-01
  9.260888e-01
  8.090982e-01
  4.068219e-01
  1.254178e-01
  6.501687e-02
  1.257159e-01
  4.629460e-01
  8.859522e-01
  9.842226e-01
  9.998081e-01
  9.977267e-01
  9.689227e-01
  8.125493e-01
  2.670627e-01
  6.071029e-02
  2.286808e-02
  2.361001e-02
  4.243445e-02
  3.431584e-02
  5.066323e-02
  6.053444e-02
  5.937305e-02
  5.312358e-02
  6.125915e-02
  1.458981e-01
  4.739134e-01
  8.072254e-01
  9.278209e-01
  9.610573e-01
  9.680443e-01
  9.680967e-01
  9.679995e-01
  9.705912e-01
  9.757782e-01
  9.814728e-01
  9.867842e-01
  9.918930e-01
  9.965932e-01
  9.999000e-01
  9.999000e-01
  9.891833e-01
  9.071206e-01
  5.526427e-01
  1.547785e-01
  4.892276e-02
  2.432977e-02
  1.712046e-02
  1.656913e-02
  2.685254e-02
  6.724359e-02
  1.873292e-01
  4.520836e-01
  7.496902e-01
  8.975258e-01
  9.538980e-01
  9.669443e-01
  9.372071e-01
  7.796601e-01
  3.356356e-01
  1.103126e-01
  6.963454e-02
  1.168965e-01
  3.108335e-01
  5.765681e-01
  6.434573e-01
  4.678988e-01
  1.943731e-01
  7.369499e-02
  4.963724e-02
  1.023764e-01
  3.857490e-01
  8.591165e-01
  9.780016e-01
  9.979758e-01
  9.959172e-01
  9.683139e-01
  8.214444e-01
  2.894069e-01
  6.196497e-02
  1.814006e-02
  1.497981e-02
  2.159763e-02
  1.866883e-02
  2.378948e-02
  2.704768e-02
  2.877760e-02
  3.410850e-02
  6.543869e-02
  2.215963e-01
  7.124716e-01
  9.389241e-01
  9.907312e-01
  9.989021e-01
  9.971980e-01
  9.926210e-01
  9.871474e-01
  9.817283e-01
  9.767452e-01
  9.730888e-01
  9.726925e-01
  9.762148e-01
  9.818737e-01
  9.865854e-01
  9.860919e-01
  9.666017e-01
  8.602935e-01
  4.737746e-01
  1.349752e-01
  4.618518e-02
  2.465646e-02
  1.732593e-02
  1.402986e-02
  1.434691e-02
  2.276485e-02
  5.282084e-02
  1.359506e-01
  3.161525e-01
  5.803830e-01
  7.468818e-01
  7.890398e-01
  7.198879e-01
  4.709731e-01
  1.757090e-01
  7.064670e-02
  4.930673e-02
  6.047395e-02
  1.066990e-01
  1.748936e-01
  1.956190e-01
  1.450475e-01
  7.756202e-02
  4.439682e-02
  3.887281e-02
  7.963267e-02
  2.998516e-01
  8.113829e-01
  9.660185e-01
  9.945509e-01
  9.941337e-01
  9.698273e-01
  8.437936e-01
  3.615146e-01
  7.793902e-02
  1.749568e-02
  1.012463e-02
  1.335159e-02
  1.403682e-02
  1.743306e-02
  2.019460e-02
  2.333914e-02
  3.196261e-02
  7.041644e-02
  2.500542e-01
  7.688205e-01
  9.609728e-01
  9.982371e-01
  9.999000e-01
  9.934495e-01
  9.811964e-01
  9.636436e-01
  9.416355e-01
  9.143532e-01
  8.861098e-01
  8.697547e-01
  8.716144e-01
  8.842079e-01
  8.931522e-01
  8.826073e-01
  8.235002e-01
  6.292323e-01
  2.608154e-01
  8.458575e-02
  3.763054e-02
  2.463397e-02
  1.976089e-02
  1.752689e-02
  1.678796e-02
  1.828957e-02
  2.524543e-02
  4.507605e-02
  9.002509e-02
  1.654088e-01
  2.348992e-01
  2.608942e-01
  2.274741e-01
  1.456554e-01
  7.301487e-02
  4.480530e-02
  3.802113e-02
  4.031181e-02
  5.015805e-02
  6.452425e-02
  7.121210e-02
  6.351538e-02
  4.927696e-02
  3.830914e-02
  3.529904e-02
  6.167220e-02
  2.181950e-01
  7.099907e-01
  9.365726e-01
  9.867368e-01
  9.920235e-01
  9.749140e-01
  8.868691e-01
  5.281895e-01
  1.355849e-01
  2.987842e-02
  1.085400e-02
  1.066575e-02
  1.589792e-02
  1.682946e-02
  1.862500e-02
  2.164947e-02
  2.960425e-02
  6.111633e-02
  2.025739e-01
  6.557365e-01
  9.046101e-01
  9.642020e-01
  9.667162e-01
  9.455021e-01
  8.985097e-01
  8.261870e-01
  7.385089e-01
  6.292163e-01
  5.133624e-01
  4.428532e-01
  4.364702e-01
  4.675502e-01
  4.877947e-01
  4.534281e-01
  3.534444e-01
  2.188009e-01
  1.001246e-01
  4.858096e-02
  3.250696e-02
  2.907326e-02
  3.210780e-02
  3.913613e-02
  4.591760e-02
  5.075970e-02
  5.508471e-02
  6.128763e-02
  7.120930e-02
  8.333467e-02
  8.915827e-02
  8.395359e-02
  7.073603e-02
  5.337870e-02
  3.973244e-02
  3.400102e-02
  3.277775e-02
  3.426140e-02
  3.955804e-02
  5.147368e-02
  6.900197e-02
  8.066471e-02
  7.779090e-02
  6.219042e-02
  4.535750e-02
  5.053418e-02
  1.383234e-01
  4.946349e-01
  8.540366e-01
  9.630878e-01
  9.857601e-01
  9.799797e-01
  9.330692e-01
  7.347145e-01
  2.967685e-01
  8.755521e-02
  3.082872e-02
  1.770520e-02
  3.666138e-02
  2.436453e-02
  2.002430e-02
  2.032411e-02
  2.514163e-02
  4.242333e-02
  1.099664e-01
  3.401001e-01
  6.516631e-01
  7.798461e-01
  7.863083e-01
  7.138384e-01
  5.474775e-01
  3.455086e-01
  2.208001e-01
  1.547375e-01
  1.172615e-01
  1.024609e-01
  1.064949e-01
  1.198684e-01
  1.290369e-01
  1.227848e-01
  1.004603e-01
  7.166590e-02
  4.781714e-02
  3.700209e-02
  3.756683e-02
  5.385135e-02
  9.377566e-02
  1.522831e-01
  2.012790e-01
  2.301641e-01
  2.448377e-01
  2.506103e-01
  2.455660e-01
  2.198540e-01
  1.646510e-01
  9.811470e-02
  5.555723e-02
  3.759611e-02
  3.151181e-02
  3.008173e-02
  3.074553e-02
  3.469085e-02
  4.974291e-02
  9.670936e-02
  1.847599e-01
  2.542458e-01
  2.583083e-01
  1.949861e-01
  1.047446e-01
  5.764746e-02
  7.974604e-02
  2.478987e-01
  6.438693e-01
  8.842607e-01
  9.603465e-01
  9.769371e-01
  9.625348e-01
  8.845537e-01
  6.369311e-01
  2.992164e-01
  1.313899e-01
  6.417256e-02
  1.373224e-01
  6.261216e-02
  3.044759e-02
  2.068099e-02
  2.067786e-02
  2.768306e-02
  4.915959e-02
  1.068256e-01
  1.946841e-01
  2.473332e-01
  2.437278e-01
  1.984039e-01
  1.341656e-01
  7.844261e-02
  4.779145e-02
  3.457936e-02
  3.182770e-02
  3.746326e-02
  4.795056e-02
  5.663321e-02
  5.813093e-02
  5.355162e-02
  4.719345e-02
  4.111675e-02
  3.729650e-02
  4.026912e-02
  6.455260e-02
  1.547899e-01
  3.487233e-01
  5.876370e-01
  7.284128e-01
  7.822284e-01
  8.000144e-01
  8.027292e-01
  7.885776e-01
  7.306572e-01
  5.671507e-01
  3.042472e-01
  1.197568e-01
  5.040208e-02
  3.256388e-02
  2.930445e-02
  3.106609e-02
  4.226556e-02
  9.301375e-02
  2.795122e-01
  5.977600e-01
  7.658327e-01
  7.767888e-01
  6.392690e-01
  3.253753e-01
  1.083732e-01
  5.842100e-02
  1.028878e-01
  2.957179e-01
  6.431860e-01
  8.606506e-01
  9.442411e-01
  9.669455e-01
  9.533582e-01
  8.859002e-01
  7.320618e-01
  4.899991e-01
  2.698648e-01
  4.843902e-01
  2.119921e-01
  7.354500e-02
  2.887914e-02
  1.871354e-02
  2.000784e-02
  2.699324e-02
  4.010122e-02
  5.639865e-02
  6.477147e-02
  6.085713e-02
  4.831252e-02
  3.331532e-02
  2.172382e-02
  1.680791e-02
  1.942594e-02
  3.305848e-02
  6.163344e-02
  9.423662e-02
  1.076632e-01
  9.014577e-02
  6.153082e-02
  4.533970e-02
  3.894886e-02
  3.918580e-02
  5.475416e-02
  1.342945e-01
  4.249236e-01
  7.656476e-01
  9.045706e-01
  9.494144e-01
  9.627754e-01
  9.665770e-01
  9.670496e-01
  9.635101e-01
  9.470825e-01
  8.868969e-01
  6.976434e-01
  3.096478e-01
  9.401305e-02
  4.055674e-02
  3.061554e-02
  3.329787e-02
  5.718805e-02
  1.757726e-01
  5.894829e-01
  8.789240e-01
  9.592904e-01
  9.636586e-01
  9.021183e-01
  6.554217e-01
  2.061066e-01
  6.487590e-02
  4.867701e-02
  9.809135e-02
  2.541381e-01
  5.535298e-01
  8.075703e-01
  9.253522e-01
  9.635090e-01
  9.628386e-01
  9.334602e-01
  8.668669e-01
  7.376317e-01
  8.347575e-01
  5.605643e-01
  2.099917e-01
  6.539641e-02
  2.723409e-02
  2.119797e-02
  2.375592e-02
  2.760953e-02
  2.982779e-02
  2.904425e-02
  2.554974e-02
  2.063161e-02
  1.599237e-02
  1.355299e-02
  1.629546e-02
  3.280595e-02
  8.809573e-02
  2.085375e-01
  3.324019e-01
  3.653441e-01
  2.680414e-01
  1.269024e-01
  6.281333e-02
  4.402175e-02
  4.403970e-02
  7.318193e-02
  2.223792e-01
  6.924418e-01
  9.272426e-01
  9.841427e-01
  9.951803e-01
  9.967705e-01
  9.968573e-01
  9.968211e-01
  9.964404e-01
  9.934043e-01
  9.757043e-01
  8.901718e-01
  5.719723e-01
  1.625484e-01
  5.328831e-02
  3.305598e-02
  3.572785e-02
  7.026715e-02
  2.434175e-01
  7.585409e-01
  9.579076e-01
  9.991088e-01
  9.999000e-01
  9.697047e-01
  8.036102e-01
  2.838232e-01
  7.729986e-02
  3.465762e-02
  3.686487e-02
  7.478491e-02
  1.880806e-01
  4.438229e-01
  7.575896e-01
  9.158524e-01
  9.683815e-01
  9.795533e-01
  9.714071e-01
  9.383725e-01
  9.499380e-01
  8.286993e-01
  5.033733e-01
  1.941576e-01
  8.309704e-02
  5.616406e-02
  5.200067e-02
  4.822226e-02
  3.899006e-02
  2.900438e-02
  2.195296e-02
  1.721722e-02
  1.424461e-02
  1.445657e-02
  2.502736e-02
  7.687893e-02
  2.723404e-01
  6.343508e-01
  8.210891e-01
  8.404747e-01
  6.869620e-01
  2.897225e-01
  9.842790e-02
  5.123799e-02
  4.686449e-02
  8.051785e-02
  2.550917e-01
  7.611048e-01
  9.560804e-01
  9.955246e-01
  9.999000e-01
  9.999000e-01
  9.999000e-01
  9.999000e-01
  9.999000e-01
  9.999000e-01
  9.940214e-01
  9.426934e-01
  7.005717e-01
  2.067427e-01
  6.199355e-02
  3.484860e-02
  3.656433e-02
  7.243808e-02
  2.525749e-01
  7.742353e-01
  9.630557e-01
  9.999000e-01
  9.999000e-01
  9.746013e-01
  8.199809e-01
  2.980151e-01
  8.024913e-02
  3.189849e-02
  2.249981e-02
  2.722394e-02
  5.482535e-02
  1.458846e-01
  3.884247e-01
  7.380983e-01
  9.148752e-01
  9.726215e-01
  9.874695e-01
  9.831000e-01
  9.645949e-01
  9.235231e-01
  7.932047e-01
  5.381532e-01
  3.258812e-01
  2.464017e-01
  2.175725e-01
  1.783848e-01
  1.130367e-01
  5.711379e-02
  2.999191e-02
  1.927086e-02
  1.512525e-02
  1.736480e-02
  4.190945e-02
  1.651560e-01
  5.778359e-01
  8.838730e-01
  9.702814e-01
  9.709064e-01
  8.611957e-01
  4.292735e-01
  1.279204e-01
  5.505174e-02
  4.516092e-02
  7.041445e-02
  2.071006e-01
  6.529979e-01
  9.071773e-01
  9.738754e-01
  9.895046e-01
  9.938026e-01
  9.956677e-01
  9.970203e-01
  9.981706e-01
  9.979146e-01
  9.875972e-01
  9.247328e-01
  6.565126e-01
  1.918689e-01
  5.998457e-02
  3.521677e-02
  3.603337e-02
  6.309578e-02
  1.986802e-01
  6.482715e-01
  9.056109e-01
  9.705755e-01
  9.749909e-01
  9.302530e-01
  7.232000e-01
  2.410644e-01
  6.994136e-02
  3.092332e-02
  2.074135e-02
  1.790219e-02
  2.217604e-02
  4.613944e-02
  1.318952e-01
  3.711546e-01
  7.190308e-01
  8.958634e-01
  9.559094e-01
  9.712605e-01
  8.841322e-01
  8.936970e-01
  8.806419e-01
  8.402908e-01
  7.978765e-01
  7.773189e-01
  7.504209e-01
  6.503775e-01
  4.075933e-01
  1.643906e-01
  5.659003e-02
  2.513423e-02
  1.671947e-02
  2.167952e-02
  6.841169e-02
  2.902302e-01
  7.799593e-01
  9.587280e-01
  9.967737e-01
  9.854926e-01
  8.749154e-01
  4.298730e-01
  1.232457e-01
  5.135285e-02
  4.010379e-02
  5.154797e-02
  1.161306e-01
  3.533699e-01
  6.941727e-01
  8.585336e-01
  9.244214e-01
  9.512830e-01
  9.628173e-01
  9.684874e-01
  9.705033e-01
  9.647859e-01
  9.314910e-01
  8.001005e-01
  4.338397e-01
  1.286855e-01
  5.074749e-02
  3.759615e-02
  3.964446e-02
  5.389971e-02
  1.176765e-01
  3.496683e-01
  6.742859e-01
  8.119337e-01
  8.257534e-01
  7.296082e-01
  4.363285e-01
  1.451994e-01
  5.632695e-02
  3.300770e-02
  2.396613e-02
  1.884742e-02
  1.695326e-02
  2.149271e-02
  4.456899e-02
  1.217755e-01
  3.170383e-01
  6.094176e-01
  7.842081e-01
  8.543128e-01
  5.141210e-01
  6.320289e-01
  7.519251e-01
  8.647973e-01
  9.255486e-01
  9.493605e-01
  9.534479e-01
  9.230849e-01
  7.868666e-01
  4.086155e-01
  1.135622e-01
  3.563086e-02
  1.911003e-02
  2.901063e-02
  1.122973e-01
  4.677723e-01
  8.729412e-01
  9.777947e-01
  9.927317e-01
  9.612371e-01
  7.962360e-01
  3.154468e-01
  9.181956e-02
  4.331900e-02
  3.565745e-02
  3.860930e-02
  5.684746e-02
  1.206932e-01
  2.580427e-01
  4.526031e-01
  6.400908e-01
  7.435261e-01
  7.896305e-01
  8.100307e-01
  8.138812e-01
  7.896082e-01
  6.912262e-01
  4.451430e-01
  1.842034e-01
  7.224150e-02
  5.022115e-02
  5.895488e-02
  7.192967e-02
  7.847050e-02
  8.804114e-02
  1.348609e-01
  2.291084e-01
  3.034088e-01
  3.165352e-01
  2.599619e-01
  1.615416e-01
  9.253008e-02
  6.881206e-02
  5.458411e-02
  3.901075e-02
  2.653070e-02
  1.975058e-02
  1.803004e-02
  2.267607e-02
  4.123061e-02
  8.992497e-02
  1.796679e-01
  2.846820e-01
  3.962833e-01
  1.231235e-01
  1.802102e-01
  3.433341e-01
  6.856577e-01
  9.074874e-01
  9.766996e-01
  9.954562e-01
  9.895372e-01
  9.238028e-01
  6.374931e-01
  1.749152e-01
  4.611532e-02
  2.224431e-02
  4.227320e-02
  1.807591e-01
  6.550889e-01
  9.224088e-01
  9.795768e-01
  9.718777e-01
  8.878144e-01
  5.905468e-01
  1.833938e-01
  6.090059e-02
  3.837834e-02
  3.597810e-02
  3.587334e-02
  3.764792e-02
  4.767647e-02
  7.296398e-02
  1.154705e-01
  1.675663e-01
  2.113698e-01
  2.429697e-01
  2.636358e-01
  2.702077e-01
  2.537035e-01
  2.047679e-01
  1.294552e-01
  7.093040e-02
  5.696999e-02
  9.064053e-02
  1.713245e-01
  2.391987e-01
  2.448869e-01
  1.879494e-01
  1.164694e-01
  9.030432e-02
  9.175716e-02
  9.508947e-02
  9.725412e-02
  1.166923e-01
  1.635648e-01
  1.945048e-01
  1.713606e-01
  1.085842e-01
  5.537247e-02
  2.970752e-02
  2.107716e-02
  1.967717e-02
  2.310599e-02
  3.291546e-02
  5.030989e-02
  7.136480e-02
  9.428102e-02
  2.977146e-02
  4.445531e-02
  1.166204e-01
  3.818642e-01
  8.019649e-01
  9.578596e-01
  9.968416e-01
  9.969882e-01
  9.410210e-01
  6.763641e-01
  1.866277e-01
  4.822563e-02
  2.739046e-02
  7.075306e-02
  2.953104e-01
  7.813930e-01
  9.469832e-01
  9.696267e-01
  9.192627e-01
  7.081891e-01
  2.959890e-01
  9.061279e-02
  4.707606e-02
  4.700625e-02
  5.099613e-02
  4.762704e-02
  3.977448e-02
  3.412717e-02
  3.337448e-02
  3.731836e-02
  4.464699e-02
  5.263646e-02
  5.994682e-02
  6.578243e-02
  6.864123e-02
  6.647866e-02
  5.827737e-02
  4.745534e-02
  4.705268e-02
  8.712395e-02
  2.535216e-01
  5.681652e-01
  7.475338e-01
  7.524913e-01
  5.866913e-01
  2.730946e-01
  9.790078e-02
  5.433054e-02
  5.541001e-02
  9.909093e-02
  2.572088e-01
  5.158112e-01
  6.575198e-01
  6.067263e-01
  3.842784e-01
  1.631970e-01
  5.876577e-02
  2.901606e-02
  2.202032e-02
  2.125072e-02
  2.274550e-02
  2.514909e-02
  2.698312e-02
  2.773867e-02
  1.642431e-02
  1.866318e-02
  4.729339e-02
  1.803653e-01
  5.754331e-01
  8.697551e-01
  9.570551e-01
  9.583589e-01
  8.643439e-01
  5.193700e-01
  1.398271e-01
  4.265852e-02
  4.278822e-02
  1.437582e-01
  5.094420e-01
  8.694364e-01
  9.576846e-01
  9.425196e-01
  7.985469e-01
  4.012796e-01
  1.258972e-01
  5.693395e-02
  6.861629e-02
  1.061574e-01
  1.274876e-01
  1.080511e-01
  6.913102e-02
  4.181204e-02
  3.003728e-02
  2.582087e-02
  2.527413e-02
  2.696996e-02
  3.000633e-02
  3.289150e-02
  3.399049e-02
  3.310832e-02
  3.172577e-02
  3.353344e-02
  5.309177e-02
  1.561598e-01
  5.397563e-01
  8.636932e-01
  9.555699e-01
  9.566300e-01
  8.701080e-01
  5.586786e-01
  1.648688e-01
  6.145159e-02
  6.394987e-02
  1.756905e-01
  5.692402e-01
  8.534516e-01
  9.312286e-01
  9.143591e-01
  7.856217e-01
  4.361007e-01
  1.280465e-01
  4.434077e-02
  2.702644e-02
  2.459552e-02
  2.555022e-02
  2.618003e-02
  2.442831e-02
  2.035110e-02
  2.465885e-02
  1.864158e-02
  2.699668e-02
  7.729917e-02
  2.551071e-01
  5.791742e-01
  7.600612e-01
  7.622754e-01
  5.819098e-01
  2.470905e-01
  7.706386e-02
  4.408666e-02
  9.453044e-02
  3.184790e-01
  7.451347e-01
  9.294895e-01
  9.575142e-01
  8.875940e-01
  5.839270e-01
  1.872766e-01
  6.569507e-02
  7.598801e-02
  1.892120e-01
  3.567246e-01
  4.389388e-01
  3.548632e-01
  1.857632e-01
  7.405259e-02
  3.766594e-02
  2.788254e-02
  2.710690e-02
  3.197927e-02
  4.112818e-02
  4.889983e-02
  4.827256e-02
  4.050823e-02
  3.350615e-02
  3.454753e-02
  6.225185e-02
  2.092194e-01
  7.047475e-01
  9.467521e-01
  9.997216e-01
  9.999000e-01
  9.498522e-01
  7.197038e-01
  2.193700e-01
  7.315054e-02
  7.979927e-02