# vtk DataFile Version 2.0
time_10.vtk
ASCII
DATASET STRUCTURED_GRID
DIMENSIONS    64    64     1
POINTS    4096 float
  0.000000e+00   0.000000e+00   0.000000e+00
  0.000000e+00   1.000000e+00   0.000000e+00
  0.000000e+00   2.000000e+00   0.000000e+00
  0.000000e+00   3.000000e+00   0.000000e+00
  0.000000e+00   4.000000e+00   0.000000e+00
  0.000000e+00   5.000000e+00   0.000000e+00
  0.000000e+00   6.000000e+00   0.000000e+00
  0.000000e+00   7.000000e+00   0.000000e+00
  0.000000e+00   8.000000e+00   0.000000e+00
  0.000000e+00   9.000000e+00   0.000000e+00
  0.000000e+00   1.000000e+01   0.000000e+00
  0.000000e+00   1.100000e+01   0.000000e+00
  0.000000e+00   1.200000e+01   0.000000e+00
  0.000000e+00   1.300000e+01   0.000000e+00
  0.000000e+00   1.400000e+01   0.000000e+00
  0.000000e+00   1.500000e+01   0.000000e+00
  0.000000e+00   1.600000e+01   0.000000e+00
  0.000000e+00   1.700000e+01   0.000000e+00
  0.000000e+00   1.800000e+01   0.000000e+00
  0.000000e+00   1.900000e+01   0.000000e+00
  0.000000e+00   2.000000e+01   0.000000e+00
  0.000000e+00   2.100000e+01   0.000000e+00
  0.000000e+00   2.200000e+01   0.000000e+00
  0.000000e+00   2.300000e+01   0.000000e+00
  0.000000e+00   2.400000e+01   0.000000e+00
  0.000000e+00   2.500000e+01   0.000000e+00
  0.000000e+00   2.600000e+01   0.000000e+00
  0.000000e+00   2.700000e+01   0.000000e+00
  0.000000e+00   2.800000e+01   0.000000e+00
  0.000000e+00   2.900000e+01   0.000000e+00
  0.000000e+00   3.000000e+01   0.000000e+00
  0.000000e+00   3.100000e+01   0.000000e+00
  0.000000e+00   3.200000e+01   0.000000e+00
  0.000000e+00   3.300000e+01   0.000000e+00
  0.000000e+00   3.400000e+01   0.000000e+00
  0.000000e+00   3.500000e+01   0.000000e+00
  0.000000e+00   3.600000e+01   0.000000e+00
  0.000000e+00   3.700000e+01   0.000000e+00
  0.000000e+00   3.800000e+01   0.000000e+00
  0.000000e+00   3.900000e+01   0.000000e+00
  0.000000e+00   4.000000e+01   0.000000e+00
  0.000000e+00   4.100000e+01   0.000000e+00
  0.000000e+00   4.200000e+01   0.000000e+00
  0.000000e+00   4.300000e+01   0.000000e+00
  0.000000e+00   4.400000e+01   0.000000e+00
  0.000000e+00   4.500000e+01   0.000000e+00
  0.000000e+00   4.600000e+01   0.000000e+00
  0.000000e+00   4.700000e+01   0.000000e+00
  0.000000e+00   4.800000e+01   0.000000e+00
  0.000000e+00   4.900000e+01   0.000000e+00
  0.000000e+00   5.000000e+01   0.000000e+00
  0.000000e+00   5.100000e+01   0.000000e+00
  0.000000e+00   5.200000e+01   0.000000e+00
  0.000000e+00   5.300000e+01   0.000000e+00
  0.000000e+00   5.400000e+01   0.000000e+00
  0.000000e+00   5.500000e+01   0.000000e+00
  0.000000e+00   5.600000e+01   0.000000e+00
  0.000000e+00   5.700000e+01   0.000000e+00
  0.000000e+00   5.800000e+01   0.000000e+00
  0.000000e+00   5.900000e+01   0.000000e+00
  0.000000e+00   6.000000e+01   0.000000e+00
  0.000000e+00   6.100000e+01   0.000000e+00
  0.000000e+00   6.200000e+01   0.000000e+00
  0.000000e+00   6.300000e+01   0.000000e+00
  1.000000e+00   0.000000e+00   0.000000e+00
  1.000000e+00   1.000000e+00   0.000000e+00
  1.000000e+00   2.000000e+00   0.000000e+00
  1.000000e+00   3.000000e+00   0.000000e+00
  1.000000e+00   4.000000e+00   0.000000e+00
  1.000000e+00   5.000000e+00   0.000000e+00
  1.000000e+00   6.000000e+00   0.000000e+00
  1.000000e+00   7.000000e+00   0.000000e+00
  1.000000e+00   8.000000e+00   0.000000e+00
  1.000000e+00   9.000000e+00   0.000000e+00
  1.000000e+00   1.000000e+01   0.000000e+00
  1.000000e+00   1.100000e+01   0.000000e+00
  1.000000e+00   1.200000e+01   0.000000e+00
  1.000000e+00   1.300000e+01   0.000000e+00
  1.000000e+00   1.400000e+01   0.000000e+00
  1.000000e+00   1.500000e+01   0.000000e+00
  1.000000e+00   1.600000e+01   0.000000e+00
  1.000000e+00   1.700000e+01   0.000000e+00
  1.000000e+00   1.800000e+01   0.000000e+00
  1.000000e+00   1.900000e+01   0.000000e+00
  1.000000e+00   2.000000e+01   0.000000e+00
  1.000000e+00   2.100000e+01   0.000000e+00
  1.000000e+00   2.200000e+01   0.000000e+00
  1.000000e+00   2.300000e+01   0.000000e+00
  1.000000e+00   2.400000e+01   0.000000e+00
  1.000000e+00   2.500000e+01   0.000000e+00
  1.000000e+00   2.600000e+01   0.000000e+00
  1.000000e+00   2.700000e+01   0.000000e+00
  1.000000e+00   2.800000e+01   0.000000e+00
  1.000000e+00   2.900000e+01   0.000000e+00
  1.000000e+00   3.000000e+01   0.000000e+00
  1.000000e+00   3.100000e+01   0.000000e+00
  1.000000e+00   3.200000e+01   0.000000e+00
  1.000000e+00   3.300000e+01   0.000000e+00
  1.000000e+00   3.400000e+01   0.000000e+00
  1.000000e+00   3.500000e+01   0.000000e+00
  1.000000e+00   3.600000e+01   0.000000e+00
  1.000000e+00   3.700000e+01   0.000000e+00
  1.000000e+00   3.800000e+01   0.000000e+00
  1.000000e+00   3.900000e+01   0.000000e+00
  1.000000e+00   4.000000e+01   0.000000e+00
  1.000000e+00   4.100000e+01   0.000000e+00
  1.000000e+00   4.200000e+01   0.000000e+00
  1.000000e+00   4.300000e+01   0.000000e+00
  1.000000e+00   4.400000e+01   0.000000e+00
  1.000000e+00   4.500000e+01   0.000000e+00
  1.000000e+00   4.600000e+01   0.000000e+00
  1.000000e+00   4.700000e+01   0.000000e+00
  1.000000e+00   4.800000e+01   0.000000e+00
  1.000000e+00   4.900000e+01   0.000000e+00
  1.000000e+00   5.000000e+01   0.000000e+00
  1.000000e+00   5.100000e+01   0.000000e+00
  1.000000e+00   5.200000e+01   0.000000e+00
  1.000000e+00   5.300000e+01   0.000000e+00
  1.000000e+00   5.400000e+01   0.000000e+00
  1.000000e+00   5.500000e+01   0.000000e+00
  1.000000e+00   5.600000e+01   0.000000e+00
  1.000000e+00   5.700000e+01   0.000000e+00
  1.000000e+00   5.800000e+01   0.000000e+00
  1.000000e+00   5.900000e+01   0.000000e+00
  1.000000e+00   6.000000e+01   0.000000e+00
  1.000000e+00   6.100000e+01   0.000000e+00
  1.000000e+00   6.200000e+01   0.000000e+00
  1.000000e+00   6.300000e+01   0.000000e+00
  2.000000e+00   0.000000e+00   0.000000e+00
  2.000000e+00   1.000000e+00   0.000000e+00
  2.000000e+00   2.000000e+00   0.000000e+00
  2.000000e+00   3.000000e+00   0.000000e+00
  2.000000e+00   4.000000e+00   0.000000e+00
  2.000000e+00   5.000000e+00   0.000000e+00
  2.000000e+00   6.000000e+00   0.000000e+00
  2.000000e+00   7.000000e+00   0.000000e+00
  2.000000e+00   8.000000e+00   0.000000e+00
  2.000000e+00   9.000000e+00   0.000000e+00
  2.000000e+00   1.000000e+01   0.000000e+00
  2.000000e+00   1.100000e+01   0.000000e+00
  2.000000e+00   1.200000e+01   0.000000e+00
  2.000000e+00   1.300000e+01   0.000000e+00
  2.000000e+00   1.400000e+01   0.000000e+00
  2.000000e+00   1.500000e+01   0.000000e+00
  2.000000e+00   1.600000e+01   0.000000e+00
  2.000000e+00   1.700000e+01   0.000000e+00
  2.000000e+00   1.800000e+01   0.000000e+00
  2.000000e+00   1.900000e+01   0.000000e+00
  2.000000e+00   2.000000e+01   0.000000e+00
  2.000000e+00   2.100000e+01   0.000000e+00
  2.000000e+00   2.200000e+01   0.000000e+00
  2.000000e+00   2.300000e+01   0.000000e+00
  2.000000e+00   2.400000e+01   0.000000e+00
  2.000000e+00   2.500000e+01   0.000000e+00
  2.000000e+00   2.600000e+01   0.000000e+00
  2.000000e+00   2.700000e+01   0.000000e+00
  2.000000e+00   2.800000e+01   0.000000e+00
  2.000000e+00   2.900000e+01   0.000000e+00
  2.000000e+00   3.000000e+01   0.000000e+00
  2.000000e+00   3.100000e+01   0.000000e+00
  2.000000e+00   3.200000e+01   0.000000e+00
  2.000000e+00   3.300000e+01   0.000000e+00
  2.000000e+00   3.400000e+01   0.000000e+00
  2.000000e+00   3.500000e+01   0.000000e+00
  2.000000e+00   3.600000e+01   0.000000e+00
  2.000000e+00   3.700000e+01   0.000000e+00
  2.000000e+00   3.800000e+01   0.000000e+00
  2.000000e+00   3.900000e+01   0.000000e+00
  2.000000e+00   4.000000e+01   0.000000e+00
  2.000000e+00   4.100000e+01   0.000000e+00
  2.000000e+00   4.200000e+01   0.000000e+00
  2.000000e+00   4.300000e+01   0.000000e+00
  2.000000e+00   4.400000e+01   0.000000e+00
  2.000000e+00   4.500000e+01   0.000000e+00
  2.000000e+00   4.600000e+01   0.000000e+00
  2.000000e+00   4.700000e+01   0.000000e+00
  2.000000e+00   4.800000e+01   0.000000e+00
  2.000000e+00   4.900000e+01   0.000000e+00
  2.000000e+00   5.000000e+01   0.000000e+00
  2.000000e+00   5.100000e+01   0.000000e+00
  2.000000e+00   5.200000e+01   0.000000e+00
  2.000000e+00   5.300000e+01   0.000000e+00
  2.000000e+00   5.400000e+01   0.000000e+00
  2.000000e+00   5.500000e+01   0.000000e+00
  2.000000e+00   5.600000e+01   0.000000e+00
  2.000000e+00   5.700000e+01   0.000000e+00
  2.000000e+00   5.800000e+01   0.000000e+00
  2.000000e+00   5.900000e+01   0.000000e+00
  2.000000e+00   6.000000e+01   0.000000e+00
  2.000000e+00   6.100000e+01   0.000000e+00
  2.000000e+00   6.200000e+01   0.000000e+00
  2.000000e+00   6.300000e+01   0.000000e+00
  3.000000e+00   0.000000e+00   0.000000e+00
  3.000000e+00   1.000000e+00   0.000000e+00
  3.000000e+00   2.000000e+00   0.000000e+00
  3.000000e+00   3.000000e+00   0.000000e+00
  3.000000e+00   4.000000e+00   0.000000e+00
  3.000000e+00   5.000000e+00   0.000000e+00
  3.000000e+00   6.000000e+00   0.000000e+00
  3.000000e+00   7.000000e+00   0.000000e+00
  3.000000e+00   8.000000e+00   0.000000e+00
  3.000000e+00   9.000000e+00   0.000000e+00
  3.000000e+00   1.000000e+01   0.000000e+00
  3.000000e+00   1.100000e+01   0.000000e+00
  3.000000e+00   1.200000e+01   0.000000e+00
  3.000000e+00   1.300000e+01   0.000000e+00
  3.000000e+00   1.400000e+01   0.000000e+00
  3.000000e+00   1.500000e+01   0.000000e+00
  3.000000e+00   1.600000e+01   0.000000e+00
  3.000000e+00   1.700000e+01   0.000000e+00
  3.000000e+00   1.800000e+01   0.000000e+00
  3.000000e+00   1.900000e+01   0.000000e+00
  3.000000e+00   2.000000e+01   0.000000e+00
  3.000000e+00   2.100000e+01   0.000000e+00
  3.000000e+00   2.200000e+01   0.000000e+00
  3.000000e+00   2.300000e+01   0.000000e+00
  3.000000e+00   2.400000e+01   0.000000e+00
  3.000000e+00   2.500000e+01   0.000000e+00
  3.000000e+00   2.600000e+01   0.000000e+00
[...]
POINT_DATA  4096
SCALARS CON float 1
LOOKUP_TABLE default
  1.320473e-01
  4.805636e-01
  8.810152e-01
  9.836537e-01
  9.999000e-01
  9.966843e-01
  9.473486e-01
  7.161896e-01
  2.144396e-01
  6.234274e-02
  3.277934e-02
  2.857084e-02
  2.914785e-02
  3.061592e-02
  3.211982e-02
  3.307045e-02
  3.292967e-02
  3.151748e-02
  2.904517e-02
  2.580439e-02
  2.212500e-02
  1.875320e-02
  1.628484e-02
  1.532632e-02
  1.992085e-02
  4.953322e-02
  1.799860e-01
  5.500877e-01
  8.611494e-01
  9.637118e-01
  9.903214e-01
  9.967399e-01
  9.979551e-01
  9.972384e-01
  9.934185e-01
  9.788830e-01
  9.259832e-01
  7.500344e-01
  3.586360e-01
  1.034876e-01
  3.815265e-02
  2.581287e-02
  2.533265e-02
  2.776877e-02
  3.038882e-02
  3.185633e-02
  3.167325e-02
  2.997710e-02
  2.749885e-02
  2.565810e-02
  2.652536e-02
  3.398334e-02
  5.814094e-02
  1.102330e-01
  1.729922e-01
  1.977809e-01
  1.680537e-01
  1.058002e-01
  5.586230e-02
  3.077982e-02
  2.217465e-02
  2.119697e-02
  2.555851e-02
  4.453593e-02
  8.596512e-02
  2.979756e-01
  7.305868e-01
  9.171523e-01
  9.628374e-01
  9.545392e-01
  8.663725e-01
  5.564515e-01
  1.652975e-01
  6.191286e-02
  5.141759e-02
  6.338909e-02
  7.857081e-02
  9.288608e-02
  1.046079e-01
  1.107616e-01
  1.086373e-01
  9.818712e-02
  8.200984e-02
  6.287625e-02
  4.315641e-02
  2.793407e-02
  1.977888e-02
  1.598953e-02
  1.551707e-02
  2.411746e-02
  6.931544e-02
  2.420602e-01
  6.277995e-01
  8.835078e-01
  9.676842e-01
  9.909800e-01
  9.973037e-01
  9.989989e-01
  9.989087e-01
  9.959960e-01
  9.815419e-01
  9.140731e-01
  6.553050e-01
  2.007147e-01
  5.918147e-02
  3.025464e-02
  2.509474e-02
  2.447929e-02
  2.458201e-02
  2.459484e-02
  2.437077e-02
  2.398717e-02
  2.377270e-02
  2.483560e-02
  3.139212e-02
  5.994920e-02
  1.622580e-01
  3.859356e-01
  6.196391e-01
  6.954475e-01
  6.129184e-01
  3.875808e-01
  1.779134e-01
  6.729153e-02
  2.973168e-02
  2.079158e-02
  2.206831e-02
  3.398434e-02
  4.558646e-02
  1.273054e-01
  3.614014e-01
  6.476895e-01
  7.665262e-01
  7.477968e-01
  5.725194e-01
  2.658318e-01
  1.018542e-01
  8.382336e-02
  1.428992e-01
  2.319727e-01
  3.116932e-01
  3.786264e-01
  4.303258e-01
  4.559979e-01
  4.457974e-01
  3.998000e-01
  3.279571e-01
  2.395905e-01
  1.412148e-01
  6.491442e-02
  3.091784e-02
  1.926568e-02
  1.523069e-02
  1.577813e-02
  2.835596e-02
  8.552428e-02
  2.797754e-01
  6.571880e-01
  8.887929e-01
  9.675910e-01
  9.909304e-01
  9.979088e-01
  9.999000e-01
  9.999000e-01
  9.969613e-01
  9.665834e-01
  8.038455e-01
  2.916761e-01
  8.087562e-02
  3.566202e-02
  2.688566e-02
  2.506568e-02
  2.451228e-02
  2.415168e-02
  2.380200e-02
  2.352607e-02
  2.378223e-02
  2.681644e-02
  4.359669e-02
  1.242997e-01
  4.239339e-01
  7.793251e-01
  9.144023e-01
  9.428578e-01
  9.147154e-01
  8.012983e-01
  5.169865e-01
  1.895567e-01
  5.761555e-02
  2.420225e-02
  1.893589e-02
  2.384737e-02
  2.433664e-02
  4.670200e-02
  1.030649e-01
  1.852516e-01
  2.375383e-01
  2.313137e-01
  1.697310e-01
  9.817441e-02
  8.809317e-02
  1.949092e-01
  4.738295e-01
  7.231651e-01
  8.243132e-01
  8.621411e-01
  8.796358e-01
  8.868752e-01
  8.843097e-01
  8.697546e-01
  8.336322e-01
  7.360073e-01
  4.894551e-01
  1.959134e-01
  6.321144e-02
  2.693364e-02
  1.718725e-02
  1.420652e-02
  1.593318e-02
  3.120411e-02
  9.359480e-02
  2.899917e-01
  6.540388e-01
  8.809605e-01
  9.629995e-01
  9.893646e-01
  9.978017e-01
  9.999000e-01
  9.999000e-01
  9.787001e-01
  8.429892e-01
  3.343625e-01
  9.252952e-02
  3.923776e-02
  2.863619e-02
  2.628053e-02
  2.548856e-02
  2.497608e-02
  2.449649e-02
  2.411818e-02
  2.456766e-02
  2.980121e-02
  6.044438e-02
  2.127738e-01
  6.940058e-01
  9.295269e-01
  9.858727e-01
  9.943535e-01
  9.866550e-01
  9.498665e-01
  8.167365e-01
  4.516792e-01
  1.317214e-01
  3.742157e-02
  1.798541e-02
  1.710145e-02
  1.502369e-02
  2.131734e-02
  3.370282e-02
  5.038615e-02
  6.216892e-02
  6.308754e-02
  5.572747e-02
  5.830328e-02
  1.277117e-01
  4.258619e-01
  8.049418e-01
  9.382531e-01
  9.722876e-01
  9.808061e-01
  9.835328e-01
  9.845846e-01
  9.844276e-01
  9.823545e-01
  9.747485e-01
  9.440144e-01
  8.229592e-01
  4.652576e-01
  1.295304e-01
  4.036163e-02
  2.051309e-02
  1.507205e-02
  1.336429e-02
  1.592238e-02
  3.196384e-02
  9.253257e-02
  2.739573e-01
  6.161352e-01
  8.530178e-01
  9.488330e-01
  9.827481e-01
  9.942764e-01
  9.942385e-01
  9.645934e-01
  8.053829e-01
  3.023375e-01
  8.674063e-02
  3.927396e-02
  2.963103e-02
  2.741019e-02
  2.662997e-02
  2.609075e-02
  2.552663e-02
  2.500903e-02
  2.548968e-02
  3.234906e-02
  7.395804e-02
  2.782945e-01
  8.053800e-01
  9.686745e-01
  9.984915e-01
  9.999000e-01
  9.989090e-01
  9.873760e-01
  9.355253e-01
  7.331909e-01
  2.845858e-01
  7.153245e-02
  2.169474e-02
  1.342311e-02
  1.047751e-02
  1.276152e-02
  1.677247e-02
  2.147371e-02
  2.537961e-02
  2.792260e-02
  3.212254e-02
  5.516411e-02
  1.775124e-01
  6.288894e-01
  9.196570e-01
  9.878266e-01
  9.990713e-01
  9.999000e-01
  9.997743e-01
  9.997313e-01
  9.998280e-01
  9.999000e-01
  9.994939e-01
  9.912359e-01
  9.364153e-01
  6.923019e-01
  2.009298e-01
  5.447300e-02
  2.391668e-02
  1.660633e-02
  1.387040e-02
  1.297182e-02
  1.581728e-02
  3.065986e-02
  8.255239e-02
  2.296214e-01
  5.203843e-01
  7.809464e-01
  9.029627e-01
  9.471509e-01
  9.464223e-01
  8.796671e-01
  6.322178e-01
  2.071023e-01
  6.702741e-02
  3.631572e-02
  2.986584e-02
  2.835209e-02
  2.782568e-02
  2.741766e-02
  2.687164e-02
  2.622454e-02
  2.651038e-02
  3.376447e-02
  7.975339e-02
  3.048438e-01
  8.335243e-01
  9.761382e-01
  9.995964e-01
  9.999000e-01
  9.999000e-01
  9.961696e-01
  9.751104e-01
  8.792522e-01
  5.364370e-01
  1.485124e-01
  3.559306e-02
  1.290427e-02
  8.729517e-03
  8.790020e-03
  1.112961e-02
  1.396768e-02
  1.676434e-02
  1.978191e-02
  2.606959e-02
  5.271795e-02
  1.849660e-01
  6.621487e-01
  9.343967e-01
  9.931091e-01
  9.999000e-01
  9.999000e-01
  9.999000e-01
  9.999000e-01
  9.999000e-01
  9.999000e-01
  9.999000e-01
  9.977047e-01
  9.577456e-01
  7.518930e-01
  2.269994e-01
  6.019716e-02
  2.581225e-02
  1.803369e-02
  1.522461e-02
  1.363821e-02
  1.324950e-02
  1.605622e-02
  2.823844e-02
  6.597784e-02
  1.615931e-01
  3.456024e-01
  5.874437e-01
  7.215965e-01
  7.210095e-01
  5.698822e-01
  2.873912e-01
  1.013302e-01
  4.581571e-02
  3.266416e-02
  2.978022e-02
  2.923149e-02
  2.920579e-02
  2.920142e-02
  2.891507e-02
  2.821324e-02
  2.800935e-02
  3.416357e-02
  7.709851e-02
  2.919439e-01
  8.219043e-01
  9.722735e-01
  9.982582e-01
  9.999000e-01
  9.999000e-01
  9.983015e-01
  9.890349e-01
  9.455314e-01
  7.598069e-01
  3.009927e-01
  7.337335e-02
  1.865081e-02
  1.239556e-02
  7.415961e-03
  8.378549e-03
  1.078436e-02
  1.351857e-02
  1.662595e-02
  2.229876e-02
  4.301545e-02
  1.414202e-01
  5.238231e-01
  8.788438e-01
  9.757005e-01
  9.953292e-01
  9.986582e-01
  9.991620e-01
  9.992991e-01
  9.994926e-01
  9.996263e-01
  9.984561e-01
  9.883458e-01
  9.279474e-01
  6.707843e-01
  1.936262e-01
  5.431530e-02
  2.563155e-02
  1.911657e-02
  1.679175e-02
  1.548076e-02
  1.497830e-02
  1.604786e-02
  2.024813e-02
  3.073622e-02
  5.459961e-02
  1.016758e-01
  1.709866e-01
  2.214286e-01
  2.195313e-01
  1.647521e-01
  9.179251e-02
  4.862947e-02
  3.404808e-02
  3.035030e-02
  2.984131e-02
  3.029442e-02
  3.120765e-02
  3.239328e-02
  3.321464e-02
  3.276607e-02
  3.146928e-02
  3.467289e-02
  6.786971e-02
  2.451460e-01
  7.632002e-01
  9.548835e-01
  9.939655e-01
  9.997585e-01
  9.999000e-01
  9.988278e-01
  9.942525e-01
  9.745471e-01
  8.866178e-01
  5.675555e-01
  1.728877e-01
  4.232676e-02
  3.440891e-02
  1.266679e-02
  8.639490e-03
  9.553647e-03
  1.188480e-02
  1.475768e-02
  1.902041e-02
  3.089578e-02
  8.070560e-02
  2.817887e-01
  6.876022e-01
  8.922548e-01
  9.555008e-01
  9.730407e-01
  9.781160e-01
  9.797976e-01
  9.800645e-01
  9.781983e-01
  9.692077e-01
  9.325370e-01
  7.952673e-01
  4.239394e-01
  1.204598e-01
  4.121457e-02
  2.414105e-02
  1.998481e-02
  1.858132e-02
  1.844656e-02
  2.059393e-02
  2.747236e-02
  4.027728e-02
  5.560683e-02
  7.097989e-02
  8.648447e-02
  9.908819e-02
  9.874119e-02
  8.215118e-02
  5.986966e-02
  4.183898e-02
  3.253639e-02
  2.959790e-02
  2.937749e-02
  3.025105e-02
  3.202587e-02
  3.539065e-02
  4.116263e-02
  4.716029e-02
  4.845100e-02
  4.349154e-02
  3.917166e-02
  5.621441e-02
  1.735108e-01
  6.044753e-01
  9.005203e-01
  9.791191e-01
  9.959915e-01
  9.989346e-01
  9.986221e-01
  9.961987e-01
  9.873829e-01
  9.504267e-01
  7.993969e-01
  4.001080e-01
  1.210691e-01
  1.245706e-01
  4.505260e-02
  2.022907e-02
  1.350267e-02
  1.282440e-02
  1.435349e-02
  1.708943e-02
  2.274774e-02
  4.126912e-02
  1.094915e-01
  3.030478e-01
  5.892958e-01
  7.607098e-01
  8.244724e-01
  8.475628e-01
  8.562156e-01
  8.565169e-01
  8.458949e-01
  8.095885e-01
  6.991125e-01
  4.369285e-01
  1.729280e-01
  6.032210e-02
  3.019624e-02
  2.286974e-02
  2.098583e-02
  2.111361e-02
  2.471616e-02
  3.886485e-02
  7.852617e-02
  1.491537e-01
  2.202185e-01
  2.682516e-01
  2.883474e-01
  2.733201e-01
  2.154583e-01
  1.289701e-01
  6.487618e-02
  3.780302e-02
  2.978780e-02
  2.842140e-02
  2.919349e-02
  3.121324e-02
  3.581559e-02
  4.770144e-02
  7.456876e-02
  1.068382e-01
  1.176176e-01
  9.553325e-02
  6.285262e-02
  5.114201e-02
  1.002199e-01
  3.371249e-01
  7.461887e-01
  9.282412e-01
  9.803011e-01
  9.938402e-01
  9.968493e-01
  9.963711e-01
  9.926699e-01
  9.786341e-01
  9.228236e-01
  7.282282e-01
  3.512798e-01
  4.171513e-01
  1.874672e-01
  8.256161e-02
  4.057881e-02
  2.385280e-02
  1.822324e-02
  1.761985e-02
  1.956008e-02
  2.521810e-02
  4.232358e-02
  8.727723e-02
  1.646856e-01
  2.400843e-01
  2.949440e-01
  3.308609e-01
  3.500665e-01
  3.511880e-01
  3.309025e-01
  2.859306e-01
  2.146336e-01
  1.262854e-01
  6.118800e-02
  3.352628e-02
  2.491818e-02
  2.254432e-02
  2.245262e-02
  2.561528e-02
  4.084350e-02
  1.011036e-01
  2.784659e-01
  5.552210e-01
  7.393234e-01
  8.077337e-01
  8.223753e-01
  7.950660e-01
  6.816109e-01
  4.131774e-01
  1.616167e-01
  5.956876e-02
  3.363579e-02
  2.888220e-02
  2.952146e-02
  3.321013e-02
  4.522489e-02
  8.741927e-02
  2.081166e-01
  3.532977e-01
  4.028417e-01
  3.126934e-01
  1.626237e-01
  7.075323e-02
  6.055432e-02
  1.435908e-01
  4.169104e-01
  7.611821e-01
  9.194792e-01
  9.724541e-01
  9.891071e-01
  9.938529e-01
  9.938733e-01
  9.893656e-01
  9.719980e-01
  9.107824e-01
  7.343423e-01
  8.141631e-01
  6.044093e-01
  3.366433e-01
  1.690711e-01
  7.893274e-02
  3.810325e-02
  2.370568e-02
  2.038187e-02
  2.093409e-02
  2.433142e-02
  3.262718e-02
  4.650310e-02
  6.109522e-02
  7.286460e-02
  8.131506e-02
  8.642541e-02
  8.758030e-02
  8.382369e-02
  7.451932e-02
  6.007941e-02
  4.343862e-02
  3.119065e-02
  2.539513e-02
  2.331351e-02
  2.293214e-02
  2.453300e-02
  3.362282e-02
  7.727705e-02
  2.590501e-01
  6.626051e-01
  8.808038e-01
  9.506655e-01
  9.700769e-01
  9.734963e-01
  9.652054e-01
  9.249623e-01
  7.758877e-01
  3.941147e-01
  1.145459e-01
  4.380576e-02
  3.056238e-02
  3.022860e-02
  3.658563e-02
  6.436272e-02
  1.856897e-01
  5.644549e-01
  8.162792e-01
  8.655586e-01
  7.723697e-01
  4.508675e-01
  1.371168e-01
  5.412610e-02
  5.993401e-02
  1.479863e-01
  3.833433e-01
  7.074725e-01
  8.848831e-01
  9.554908e-01
  9.814476e-01
  9.901871e-01
  9.917629e-01
  9.878606e-01
  9.724685e-01
  9.264336e-01
  9.555333e-01
  9.009134e-01
  7.890672e-01
  5.787431e-01
  2.960625e-01
  1.168266e-01
  4.550424e-02
  2.601009e-02
  2.149079e-02
  2.072990e-02
  2.139210e-02
  2.307416e-02
  2.513294e-02
  2.718385e-02
  2.925517e-02
  3.130042e-02
  3.292112e-02
  3.353720e-02
  3.269064e-02
  3.039334e-02
  2.738934e-02
  2.498345e-02
  2.366359e-02
  2.316188e-02
  2.355261e-02
  2.683364e-02
  4.412881e-02
  1.309425e-01
  4.791059e-01
  8.639927e-01
  9.722877e-01
  9.946568e-01
  9.986437e-01
  9.991706e-01
  9.974602e-01
  9.851417e-01
  9.186723e-01
  6.469103e-01
  1.868804e-01
  5.699966e-02
  3.269836e-02
  3.090730e-02
  3.964609e-02
  8.304035e-02
  2.806782e-01
  7.841314e-01
  9.595760e-01
  9.866572e-01
  9.381862e-01
  7.017168e-01
  2.124929e-01
  6.160159e-02
  3.485488e-02
  4.997014e-02
  1.178669e-01
  2.910219e-01
  5.906242e-01
  8.173683e-01
  9.265802e-01
  9.701715e-01
  9.860047e-01
  9.905997e-01
  9.890761e-01
  9.799138e-01
  9.893472e-01
  9.795709e-01
  9.548691e-01
  8.895851e-01
  7.104159e-01
  3.459458e-01
  1.047580e-01
  3.948682e-02
  2.470883e-02
  2.091868e-02
  1.950434e-02
  1.890367e-02
  1.902082e-02
  2.022444e-02
  2.298474e-02
  2.712494e-02
  3.128807e-02
  3.386727e-02
  3.375066e-02
  3.115249e-02
  2.769325e-02
  2.520192e-02
  2.389574e-02
  2.340567e-02
  2.395068e-02
  2.819093e-02
  5.100234e-02
  1.677093e-01
  6.112890e-01
  9.225526e-01
  9.912701e-01
  9.999000e-01
  9.999000e-01
  9.999000e-01
  9.999000e-01
  9.960335e-01
  9.539231e-01
  7.434933e-01
  2.252683e-01
  6.423816e-02
  3.384215e-02
  3.111882e-02
  4.029203e-02
  8.742112e-02
  3.031575e-01
  8.191603e-01
  9.770197e-01
  9.999000e-01
  9.588561e-01
  7.450125e-01
  2.295684e-01
  6.337567e-02
  2.872424e-02
  2.463226e-02
  3.710540e-02
  8.058301e-02
  1.933329e-01
  4.243164e-01
  7.163610e-01
  8.836019e-01
  9.547982e-01
  9.815569e-01
  9.905984e-01
  9.923508e-01
  9.961207e-01
  9.968283e-01
  9.933418e-01
  9.785011e-01
  9.114694e-01
  6.582381e-01
  2.038401e-01
  6.056558e-02
  2.943261e-02
  2.201203e-02
  1.944385e-02
  1.853459e-02
  1.966316e-02
  2.486926e-02
  3.686883e-02
  5.504206e-02
  7.199415e-02
  8.033786e-02
  7.544429e-02
  5.924488e-02
  4.075653e-02
  2.975887e-02
  2.525345e-02
  2.370920e-02
  2.384701e-02
  2.762135e-02
  4.849122e-02
  1.552393e-01
  5.702662e-01
  9.073079e-01
  9.872185e-01
  9.999000e-01
  9.999000e-01
  9.999000e-01
  9.999000e-01
  9.923896e-01
  9.407426e-01
  7.042548e-01
  2.078369e-01
  6.082216e-02
  3.342368e-02
  3.119699e-02
  3.894965e-02
  7.583754e-02
  2.432665e-01
  7.152840e-01
  9.223636e-01
  9.555166e-01
  8.865512e-01
  6.013344e-01
  1.765396e-01
  5.378021e-02
  2.669109e-02
  1.991041e-02
  1.937118e-02
  2.647685e-02
  5.165258e-02
  1.212649e-01
  2.896368e-01
  5.916709e-01
  8.266611e-01
  9.360206e-01
  9.770930e-01
  9.913513e-01
  9.913859e-01
  9.984608e-01
  9.999000e-01
  9.990706e-01
  9.679014e-01
  7.991234e-01
  2.808826e-01
  7.804535e-02
  3.327387e-02
  2.287953e-02
  1.975740e-02
  2.017222e-02
  2.762765e-02
  5.289732e-02
  1.116151e-01
  1.993332e-01
  2.727896e-01
  3.033942e-01
  2.749191e-01
  1.928703e-01
  9.700635e-02
  4.572982e-02
  2.892120e-02
  2.418122e-02
  2.327470e-02
  2.547603e-02
  3.872559e-02
  1.048369e-01
  3.780468e-01
  8.016025e-01
  9.504434e-01
  9.870858e-01
  9.949941e-01
  9.955136e-01
  9.900466e-01
  9.645562e-01
  8.598546e-01
  5.143105e-01
  1.448806e-01
  4.943053e-02
  3.273366e-02
  3.355333e-02
  4.123083e-02
  6.320789e-02
  1.466205e-01
  4.135634e-01
  6.853848e-01
  7.430074e-01
  6.043289e-01
  2.911226e-01
  9.547381e-02
  4.045490e-02
  2.628063e-02
  2.104106e-02
  1.794608e-02
  1.672130e-02
  1.977733e-02
  3.407035e-02
  7.883566e-02
  2.011073e-01
  4.636406e-01
  7.626670e-01
  9.146938e-01
  9.714945e-01
  9.590253e-01
  9.871221e-01
  9.976293e-01
  9.985431e-01
  9.691471e-01
  8.052266e-01
  2.880794e-01
  8.037988e-02
  3.389022e-02
  2.302613e-02
  2.092500e-02
  2.760378e-02
  6.072676e-02
  1.689701e-01
  4.041603e-01
  6.730877e-01
  7.988068e-01
  8.300207e-01
  7.912583e-01
  6.233376e-01
  2.932379e-01
  9.283810e-02
  3.784336e-02
  2.519061e-02
  2.246960e-02
  2.299778e-02
  2.901698e-02
  5.798681e-02
  1.796514e-01
  5.148307e-01
  8.014924e-01
  9.153716e-01
  9.513313e-01
  9.546323e-01
  9.298689e-01
  8.446480e-01
  6.152702e-01
  2.491989e-01
  7.877505e-02
  3.886838e-02
  3.610044e-02
  4.788069e-02
  6.844114e-02
  8.819970e-02
  1.117623e-01
  1.663045e-01
  2.330221e-01
  2.443867e-01
  1.857348e-01
  9.963454e-02
  5.153718e-02
  3.626661e-02
  3.125460e-02
  2.714107e-02
  2.238787e-02
  1.825449e-02
  1.579070e-02
  1.642916e-02
  2.485815e-02
  5.516634e-02
  1.448400e-01
  3.649935e-01
  6.940705e-01
  8.838148e-01
  8.144073e-01
  9.184770e-01
  9.574402e-01
  9.595520e-01
  9.036676e-01
  6.703777e-01
  2.169072e-01
  6.543677e-02
  3.086906e-02
  2.279596e-02
  2.535578e-02
  5.267171e-02
  1.681965e-01
  4.809522e-01
  7.947450e-01
  9.252961e-01
  9.668874e-01
  9.763012e-01
  9.629252e-01
  8.857014e-01
  6.030547e-01
  1.761123e-01
  5.228638e-02
  2.663934e-02
  2.155126e-02
  2.090934e-02
  2.282581e-02
  3.208758e-02
  6.800385e-02
  1.776321e-01
  3.845560e-01
  6.183475e-01
  7.345051e-01
  7.470896e-01
  6.646854e-01
  4.576351e-01
  2.287722e-01
  9.158154e-02
  4.371249e-02
  3.693842e-02
  5.459236e-02
  1.133069e-01
  2.083236e-01
  2.649449e-01
  2.451039e-01
  1.684257e-01
  1.088788e-01
  8.395097e-02
  6.561503e-02
  5.042830e-02
  4.752082e-02
  5.477369e-02
  5.916888e-02
  5.220759e-02
  3.775861e-02
  2.587479e-02
  1.922677e-02
  1.579066e-02
  1.518830e-02
  2.043015e-02
  4.189803e-02
  1.087547e-01
  2.825175e-01
  5.889709e-01
  3.875834e-01
  6.279102e-01
  7.517255e-01
  7.600924e-01
  6.343855e-01
  3.354088e-01
  1.114819e-01
  4.373550e-02
  2.632143e-02
  2.357391e-02
  3.821149e-02
  1.189235e-01
  4.096816e-01
  7.932526e-01
  9.439141e-01
  9.864322e-01
  9.976203e-01
  9.999000e-01
  9.960411e-01
  9.583201e-01
  7.694848e-01
  2.455013e-01
  6.431896e-02
  2.735443e-02
  2.042192e-02
  1.924535e-02
  1.960158e-02
  2.195765e-02
  3.032863e-02
  5.402489e-02
  1.015131e-01
  1.651099e-01
  2.093661e-01
  2.158044e-01
  1.825076e-01
  1.219079e-01
  6.849830e-02
  4.034720e-02
  3.360838e-02
  4.651045e-02
  1.120494e-01
  3.433375e-01
  6.588770e-01
  7.718765e-01
  7.013737e-01
  4.149155e-01
  1.440982e-01
  6.347215e-02
  4.660723e-02
  5.387360e-02
  9.231489e-02
  1.587624e-01
  1.968780e-01
  1.694122e-01
  9.974812e-02
  4.839340e-02
  2.762347e-02
  1.971688e-02
  1.614294e-02
  1.512266e-02
  1.856256e-02
  3.361905e-02
  7.877859e-02
  1.883820e-01
  9.971307e-02
  1.695267e-01
  2.231722e-01
  2.317676e-01
  1.841751e-01
  1.032169e-01
  4.928478e-02
  2.918342e-02
  2.306224e-02
  2.738784e-02
  6.726100e-02
  2.545595e-01
  7.037949e-01
  9.267944e-01
  9.851115e-01
  9.981572e-01
  9.999000e-01
  9.999000e-01
  9.993761e-01
  9.724717e-01
  8.153265e-01
  2.739578e-01
  6.832020e-02
  2.653962e-02
  1.902569e-02
  1.783166e-02
  1.785255e-02
  1.842789e-02
  2.019366e-02
  2.472612e-02
  3.342717e-02
  4.498352e-02
  5.363120e-02
  5.539740e-02
  4.977097e-02
  3.976614e-02
  3.152319e-02
  2.866913e-02
  3.384770e-02
  6.359075e-02
  2.028753e-01
  6.551558e-01
  9.083029e-01
  9.629492e-01
  9.221677e-01
  6.990534e-01
  2.293609e-01
  7.667812e-02
  5.533355e-02
  9.963979e-02
  2.746359e-01
  5.481791e-01
  6.765695e-01
  5.957330e-01
  3.309515e-01
  1.159396e-01
  4.532150e-02
  2.602383e-02
  1.962823e-02
  1.671758e-02
  1.578293e-02
  1.800693e-02
  2.727784e-02
  5.139590e-02
  3.256684e-02
  4.604461e-02
  5.751460e-02
  6.064854e-02
  5.278053e-02
  3.849313e-02
  2.764627e-02
  2.237450e-02
  2.189004e-02
  3.572435e-02
  1.193893e-01
  4.684162e-01
  8.609169e-01
  9.726771e-01
  9.961136e-01
  9.999000e-01
  9.999000e-01
  9.999000e-01
  9.980068e-01
  9.698282e-01
  8.086226e-01
  2.640155e-01
  6.414530e-02
  2.429994e-02
  1.745643e-02
  1.658020e-02
  1.673569e-02
  1.712373e-02
  1.779772e-02
  1.907604e-02
  2.119030e-02
  2.381746e-02
  2.597459e-02
  2.691819e-02
  2.656366e-02
  2.558787e-02
  2.530975e-02
  2.719052e-02
  3.551382e-02
  7.335562e-02
  2.497646e-01
  7.636140e-01
  9.621691e-01
  9.974927e-01
  9.656955e-01
  7.800769e-01
  2.675726e-01
  8.713372e-02
  7.438955e-02