# vtk DataFile Version 2.0
time_10.vtk
ASCII
DATASET STRUCTURED_GRID
DIMENSIONS    64    64     1
POINTS    4096 float
  0.000000e+00   0.000000e+00   0.000000e+00
  0.000000e+00   1.000000e+00   0.000000e+00
  0.000000e+00   2.000000e+00   0.000000e+00
  0.000000e+00   3.000000e+00   0.000000e+00
  0.000000e+00   4.000000e+00   0.000000e+00
  0.000000e+00   5.000000e+00   0.000000e+00
  0.000000e+00   6.000000e+00   0.000000e+00
  0.000000e+00   7.000000e+00   0.000000e+00
  0.000000e+00   8.000000e+00   0.000000e+00
  0.000000e+00   9.000000e+00   0.000000e+00
  0.000000e+00   1.000000e+01   0.000000e+00
  0.000000e+00   1.100000e+01   0.000000e+00
  0.000000e+00   1.200000e+01   0.000000e+00
  0.000000e+00   1.300000e+01   0.000000e+00
  0.000000e+00   1.400000e+01   0.000000e+00
  0.000000e+00   1.500000e+01   0.000000e+00
  0.000000e+00   1.600000e+01   0.000000e+00
  0.000000e+00   1.700000e+01   0.000000e+00
  0.000000e+00   1.800000e+01   0.000000e+00
  0.000000e+00   1.900000e+01   0.000000e+00
  0.000000e+00   2.000000e+01   0.000000e+00
  0.000000e+00   2.100000e+01   0.000000e+00
  0.000000e+00   2.200000e+01   0.000000e+00
  0.000000e+00   2.300000e+01   0.000000e+00
  0.000000e+00   2.400000e+01   0.000000e+00
  0.000000e+00   2.500000e+01   0.000000e+00
  0.000000e+00   2.600000e+01   0.000000e+00
  0.000000e+00   2.700000e+01   0.000000e+00
  0.000000e+00   2.800000e+01   0.000000e+00
  0.000000e+00   2.900000e+01   0.000000e+00
  0.000000e+00   3.000000e+01   0.000000e+00
  0.000000e+00   3.100000e+01   0.000000e+00
  0.000000e+00   3.200000e+01   0.000000e+00
  0.000000e+00   3.300000e+01   0.000000e+00
  0.000000e+00   3.400000e+01   0.000000e+00
  0.000000e+00   3.500000e+01   0.000000e+00
  0.000000e+00   3.600000e+01   0.000000e+00
  0.000000e+00   3.700000e+01   0.000000e+00
  0.000000e+00   3.800000e+01   0.000000e+00
  0.000000e+00   3.900000e+01   0.000000e+00
  0.000000e+00   4.000000e+01   0.000000e+00
  0.000000e+00   4.100000e+01   0.000000e+00
  0.000000e+00   4.200000e+01   0.000000e+00
  0.000000e+00   4.300000e+01   0.000000e+00
  0.000000e+00   4.400000e+01   0.000000e+00
  0.000000e+00   4.500000e+01   0.000000e+00
  0.000000e+00   4.600000e+01   0.000000e+00
  0.000000e+00   4.700000e+01   0.000000e+00
  0.000000e+00   4.800000e+01   0.000000e+00
  0.000000e+00   4.900000e+01   0.000000e+00
  0.000000e+00   5.000000e+01   0.000000e+00
  0.000000e+00   5.100000e+01   0.000000e+00
  0.000000e+00   5.200000e+01   0.000000e+00
  0.000000e+00   5.300000e+01   0.000000e+00
  0.000000e+00   5.400000e+01   0.000000e+00
  0.000000e+00   5.500000e+01   0.000000e+00
  0.000000e+00   5.600000e+01   0.000000e+00
  0.000000e+00   5.700000e+01   0.000000e+00
  0.000000e+00   5.800000e+01   0.000000e+00
  0.000000e+00   5.900000e+01   0.000000e+00
  0.000000e+00   6.000000e+01   0.000000e+00
  0.000000e+00   6.100000e+01   0.000000e+00
  0.000000e+00   6.200000e+01   0.000000e+00
  0.000000e+00   6.300000e+01   0.000000e+00
  1.000000e+00   0.000000e+00   0.000000e+00
  1.000000e+00   1.000000e+00   0.000000e+00
  1.000000e+00   2.000000e+00   0.000000e+00
  1.000000e+00   3.000000e+00   0.000000e+00
  1.000000e+00   4.000000e+00   0.000000e+00
  1.000000e+00   5.000000e+00   0.000000e+00
  1.000000e+00   6.000000e+00   0.000000e+00
  1.000000e+00   7.000000e+00   0.000000e+00
  1.000000e+00   8.000000e+00   0.000000e+00
  1.000000e+00   9.000000e+00   0.000000e+00
  1.000000e+00   1.000000e+01   0.000000e+00
  1.000000e+00   1.100000e+01   0.000000e+00
  1.000000e+00   1.200000e+01   0.000000e+00
  1.000000e+00   1.300000e+01   0.000000e+00
  1.000000e+00   1.400000e+01   0.000000e+00
  1.000000e+00   1.500000e+01   0.000000e+00
  1.000000e+00   1.600000e+01   0.000000e+00
  1.000000e+00   1.700000e+01   0.000000e+00
  1.000000e+00   1.800000e+01   0.000000e+00
  1.000000e+00   1.900000e+01   0.000000e+00
  1.000000e+00   2.000000e+01   0.000000e+00
  1.000000e+00   2.100000e+01   0.000000e+00
  1.000000e+00   2.200000e+01   0.000000e+00
  1.000000e+00   2.300000e+01   0.000000e+00
  1.000000e+00   2.400000e+01   0.000000e+00
  1.000000e+00   2.500000e+01   0.000000e+00
  1.000000e+00   2.600000e+01   0.000000e+00
  1.000000e+00   2.700000e+01   0.000000e+00
  1.000000e+00   2.800000e+01   0.000000e+00
  1.000000e+00   2.900000e+01   0.000000e+00
  1.000000e+00   3.000000e+01   0.000000e+00
  1.000000e+00   3.100000e+01   0.000000e+00
  1.000000e+00   3.200000e+01   0.000000e+00
  1.000000e+00   3.300000e+01   0.000000e+00
  1.000000e+00   3.400000e+01   0.000000e+00
  1.000000e+00   3.500000e+01   0.000000e+00
  1.000000e+00   3.600000e+01   0.000000e+00
  1.000000e+00   3.700000e+01   0.000000e+00
  1.000000e+00   3.800000e+01   0.000000e+00
  1.000000e+00   3.900000e+01   0.000000e+00
  1.000000e+00   4.000000e+01   0.000000e+00
  1.000000e+00   4.100000e+01   0.000000e+00
  1.000000e+00   4.200000e+01   0.000000e+00
  1.000000e+00   4.300000e+01   0.000000e+00
  1.000000e+00   4.400000e+01   0.000000e+00
  1.000000e+00   4.500000e+01   0.000000e+00
  1.000000e+00   4.600000e+01   0.000000e+00
  1.000000e+00   4.700000e+01   0.000000e+00
  1.000000e+00   4.800000e+01   0.000000e+00
  1.000000e+00   4.900000e+01   0.000000e+00
  1.000000e+00   5.000000e+01   0.000000e+00
  1.000000e+00   5.100000e+01   0.000000e+00
  1.000000e+00   5.200000e+01   0.000000e+00
  1.000000e+00   5.300000e+01   0.000000e+00
  1.000000e+00   5.400000e+01   0.000000e+00
  1.000000e+00   5.500000e+01   0.000000e+00
  1.000000e+00   5.600000e+01   0.000000e+00
  1.000000e+00   5.700000e+01   0.000000e+00
  1.000000e+00   5.800000e+01   0.000000e+00
  1.000000e+00   5.900000e+01   0.000000e+00
  1.000000e+00   6.000000e+01   0.000000e+00
  1.000000e+00   6.100000e+01   0.000000e+00
  1.000000e+00   6.200000e+01   0.000000e+00
  1.000000e+00   6.300000e+01   0.000000e+00
  2.000000e+00   0.000000e+00   0.000000e+00
  2.000000e+00   1.000000e+00   0.000000e+00
  2.000000e+00   2.000000e+00   0.000000e+00
  2.000000e+00   3.000000e+00   0.000000e+00
  2.000000e+00   4.000000e+00   0.000000e+00
  2.000000e+00   5.000000e+00   0.000000e+00
  2.000000e+00   6.000000e+00   0.000000e+00
  2.000000e+00   7.000000e+00   0.000000e+00
  2.000000e+00   8.000000e+00   0.000000e+00
  2.000000e+00   9.000000e+00   0.000000e+00
  2.000000e+00   1.000000e+01   0.000000e+00
  2.000000e+00   1.100000e+01   0.000000e+00
  2.000000e+00   1.200000e+01   0.000000e+00
  2.000000e+00   1.300000e+01   0.000000e+00
  2.000000e+00   1.400000e+01   0.000000e+00
  2.000000e+00   1.500000e+01   0.000000e+00
  2.000000e+00   1.600000e+01   0.000000e+00
  2.000000e+00   1.700000e+01   0.000000e+00
  2.000000e+00   1.800000e+01   0.000000e+00
  2.000000e+00   1.900000e+01   0.000000e+00
  2.000000e+00   2.000000e+01   0.000000e+00
  2.000000e+00   2.100000e+01   0.000000e+00
  2.000000e+00   2.200000e+01   0.000000e+00
  2.000000e+00   2.300000e+01   0.000000e+00
  2.000000e+00   2.400000e+01   0.000000e+00
  2.000000e+00   2.500000e+01   0.000000e+00
  2.000000e+00   2.600000e+01   0.000000e+00
  2.000000e+00   2.700000e+01   0.000000e+00
  2.000000e+00   2.800000e+01   0.000000e+00
  2.000000e+00   2.900000e+01   0.000000e+00
  2.000000e+00   3.000000e+01   0.000000e+00
  2.000000e+00   3.100000e+01   0.000000e+00
  2.000000e+00   3.200000e+01   0.000000e+00
  2.000000e+00   3.300000e+01   0.000000e+00
  2.000000e+00   3.400000e+01   0.000000e+00
  2.000000e+00   3.500000e+01   0.000000e+00
  2.000000e+00   3.600000e+01   0.000000e+00
  2.000000e+00   3.700000e+01   0.000000e+00
  2.000000e+00   3.800000e+01   0.000000e+00
  2.000000e+00   3.900000e+01   0.000000e+00
  2.000000e+00   4.000000e+01   0.000000e+00
  2.000000e+00   4.100000e+01   0.000000e+00
  2.000000e+00   4.200000e+01   0.000000e+00
  2.000000e+00   4.300000e+01   0.000000e+00
  2.000000e+00   4.400000e+01   0.000000e+00
  2.000000e+00   4.500000e+01   0.000000e+00
  2.000000e+00   4.600000e+01   0.000000e+00
  2.000000e+00   4.700000e+01   0.000000e+00
  2.000000e+00   4.800000e+01   0.000000e+00
  2.000000e+00   4.900000e+01   0.000000e+00
  2.000000e+00   5.000000e+01   0.000000e+00
  2.000000e+00   5.100000e+01   0.000000e+00
  2.000000e+00   5.200000e+01   0.000000e+00
  2.000000e+00   5.300000e+01   0.000000e+00
  2.000000e+00   5.400000e+01   0.000000e+00
  2.000000e+00   5.500000e+01   0.000000e+00
  2.000000e+00   5.600000e+01   0.000000e+00
  2.000000e+00   5.700000e+01   0.000000e+00
  2.000000e+00   5.800000e+01   0.000000e+00
  2.000000e+00   5.900000e+01   0.000000e+00
  2.000000e+00   6.000000e+01   0.000000e+00
  2.000000e+00   6.100000e+01   0.000000e+00
  2.000000e+00   6.200000e+01   0.000000e+00
  2.000000e+00   6.300000e+01   0.000000e+00
  3.000000e+00   0.000000e+00   0.000000e+00
  3.000000e+00   1.000000e+00   0.000000e+00
  3.000000e+00   2.000000e+00   0.000000e+00
  3.000000e+00   3.000000e+00   0.000000e+00
  3.000000e+00   4.000000e+00   0.000000e+00
  3.000000e+00   5.000000e+00   0.000000e+00
  3.000000e+00   6.000000e+00   0.000000e+00
  3.000000e+00   7.000000e+00   0.000000e+00
  3.000000e+00   8.000000e+00   0.000000e+00
  3.000000e+00   9.000000e+00   0.000000e+00
  3.000000e+00   1.000000e+01   0.000000e+00
  3.000000e+00   1.100000e+01   0.000000e+00
  3.000000e+00   1.200000e+01   0.000000e+00
  3.000000e+00   1.300000e+01   0.000000e+00
  3.000000e+00   1.400000e+01   0.000000e+00
  3.000000e+00   1.500000e+01   0.000000e+00
  3.000000e+00   1.600000e+01   0.000000e+00
  3.000000e+00   1.700000e+01   0.000000e+00
  3.000000e+00   1.800000e+01   0.000000e+00
  3.000000e+00   1.900000e+01   0.000000e+00
  3.000000e+00   2.000000e+01   0.000000e+00
  3.000000e+00   2.100000e+01   0.000000e+00
  3.000000e+00   2.200000e+01   0.000000e+00
  3.000000e+00   2.300000e+01   0.000000e+00
  3.000000e+00   2.400000e+01   0.000000e+00
  3.000000e+00   2.500000e+01   0.000000e+00
  3.000000e+00   2.600000e+01   0.000000e+00
[...]
POINT_DATA  4096
SCALARS CON float 1
LOOKUP_TABLE default
  1.401985e-01
  5.122566e-01
  8.897872e-01
  9.849929e-01
  9.999000e-01
  9.970449e-01
  9.497496e-01
  7.254264e-01
  2.192756e-01
  6.337992e-02
  3.300926e-02
  2.864056e-02
  2.913114e-02
  3.048912e-02
  3.189762e-02
  3.285520e-02
  3.286304e-02
  3.167923e-02
  2.940410e-02
  2.626523e-02
  2.258446e-02
  1.912182e-02
  1.655997e-02
  1.551762e-02
  1.994607e-02
  4.891624e-02
  1.767981e-01
  5.426290e-01
  8.576554e-01
  9.625785e-01
  9.899025e-01
  9.964998e-01
  9.977312e-01
  9.969340e-01
  9.928422e-01
  9.775766e-01
  9.232444e-01
  7.465305e-01
  3.599700e-01
  1.052501e-01
  3.891613e-02
  2.616363e-02
  2.554320e-02
  2.791204e-02
  3.046146e-02
  3.185388e-02
  3.160612e-02
  2.987099e-02
  2.738658e-02
  2.557647e-02
  2.655575e-02
  3.440138e-02
  5.973882e-02
  1.140150e-01
  1.779309e-01
  2.021760e-01
  1.713544e-01
  1.075373e-01
  5.629774e-02
  3.070198e-02
  2.193149e-02
  2.087402e-02
  2.532605e-02
  4.550421e-02
  8.998085e-02
  3.152114e-01
  7.421502e-01
  9.206363e-01
  9.641473e-01
  9.564019e-01
  8.719864e-01
  5.702142e-01
  1.701469e-01
  6.312607e-02
  5.192372e-02
  6.348671e-02
  7.802322e-02
  9.143678e-02
  1.023590e-01
  1.083963e-01
  1.070744e-01
  9.793587e-02
  8.287890e-02
  6.431283e-02
  4.459633e-02
  2.884482e-02
  2.026275e-02
  1.627236e-02
  1.566363e-02
  2.396388e-02
  6.801109e-02
  2.369706e-01
  6.199432e-01
  8.800914e-01
  9.665258e-01
  9.905424e-01
  9.970806e-01
  9.988382e-01
  9.987390e-01
  9.957055e-01
  9.811853e-01
  9.149714e-01
  6.630519e-01
  2.084358e-01
  6.166908e-02
  3.108154e-02
  2.542772e-02
  2.461706e-02
  2.461233e-02
  2.455615e-02
  2.428907e-02
  2.388636e-02
  2.368201e-02
  2.481595e-02
  3.166766e-02
  6.149361e-02
  1.685098e-01
  4.000518e-01
  6.332615e-01
  7.051822e-01
  6.219808e-01
  3.939858e-01
  1.796952e-01
  6.734561e-02
  2.950109e-02
  2.050971e-02
  2.182572e-02
  3.436528e-02
  4.679701e-02
  1.329931e-01
  3.732427e-01
  6.571852e-01
  7.722295e-01
  7.546786e-01
  5.849812e-01
  2.757759e-01
  1.051877e-01
  8.591690e-02
  1.451712e-01
  2.327342e-01
  3.094856e-01
  3.724104e-01
  4.206923e-01
  4.458732e-01
  4.388628e-01
  3.982058e-01
  3.311495e-01
  2.455462e-01
  1.476352e-01
  6.837213e-02
  3.216923e-02
  1.975693e-02
  1.547793e-02
  1.584992e-02
  2.797793e-02
  8.352943e-02
  2.733205e-01
  6.489101e-01
  8.851506e-01
  9.663180e-01
  9.904804e-01
  9.977546e-01
  9.999000e-01
  9.999000e-01
  9.970544e-01
  9.683672e-01
  8.131982e-01
  3.091058e-01
  8.608574e-02
  3.714967e-02
  2.739935e-02
  2.524996e-02
  2.454322e-02
  2.409956e-02
  2.370739e-02
  2.341969e-02
  2.370009e-02
  2.685234e-02
  4.417842e-02
  1.275155e-01
  4.357027e-01
  7.876297e-01
  9.184530e-01
  9.452352e-01
  9.169604e-01
  8.036990e-01
  5.183305e-01
  1.888171e-01
  5.703845e-02
  2.387186e-02
  1.869501e-02
  2.384084e-02
  2.453785e-02
  4.791951e-02
  1.060666e-01
  1.892697e-01
  2.417616e-01
  2.358724e-01
  1.743728e-01
  1.013568e-01
  9.092987e-02
  2.015471e-01
  4.825401e-01
  7.262583e-01
  8.240635e-01
  8.603437e-01
  8.770440e-01
  8.842831e-01
  8.825974e-01
  8.697465e-01
  8.366184e-01
  7.458147e-01
  5.101236e-01
  2.088029e-01
  6.683605e-02
  2.791177e-02
  1.755450e-02
  1.438667e-02
  1.591642e-02
  3.061752e-02
  9.108439e-02
  2.825995e-01
  6.448194e-01
  8.767338e-01
  9.615091e-01
  9.888801e-01
  9.976727e-01
  9.999000e-01
  9.999000e-01
  9.808337e-01
  8.537426e-01
  3.591849e-01
  9.976744e-02
  4.117203e-02
  2.925389e-02
  2.648182e-02
  2.550797e-02
  2.490307e-02
  2.438056e-02
  2.399424e-02
  2.447283e-02
  2.983082e-02
  6.104101e-02
  2.159101e-01
  7.007703e-01
  9.321079e-01
  9.867834e-01
  9.947670e-01
  9.870019e-01
  9.501336e-01
  8.160212e-01
  4.477617e-01
  1.294836e-01
  3.669395e-02
  1.769979e-02
  1.697343e-02
  1.499837e-02
  2.151766e-02
  3.426293e-02
  5.122889e-02
  6.314520e-02
  6.414065e-02
  5.682314e-02
  5.974865e-02
  1.322954e-01
  4.408907e-01
  8.114386e-01
  9.396799e-01
  9.723610e-01
  9.805291e-01
  9.831236e-01
  9.841809e-01
  9.841749e-01
  9.824380e-01
  9.756489e-01
  9.474795e-01
  8.345957e-01
  4.895942e-01
  1.369843e-01
  4.205144e-02
  2.101180e-02
  1.530761e-02
  1.347706e-02
  1.582656e-02
  3.123667e-02
  8.977514e-02
  2.662137e-01
  6.055301e-01
  8.478918e-01
  9.470340e-01
  9.821528e-01
  9.941621e-01
  9.947116e-01
  9.678124e-01
  8.188942e-01
  3.247843e-01
  9.324776e-02
  4.103238e-02
  3.018212e-02
  2.756659e-02
  2.661057e-02
  2.598354e-02
  2.538179e-02
  2.486001e-02
  2.536530e-02
  3.230850e-02
  7.426226e-02
  2.800113e-01
  8.075515e-01
  9.693419e-01
  9.986579e-01
  9.999000e-01
  9.989145e-01
  9.872739e-01
  9.346202e-01
  7.286938e-01
  2.780519e-01
  6.948054e-02
  2.115334e-02
  1.324984e-02
  1.040025e-02
  1.277880e-02
  1.687210e-02
  2.163682e-02
  2.557446e-02
  2.813958e-02
  3.246058e-02
  5.636226e-02
  1.832901e-01
  6.441675e-01
  9.235589e-01
  9.884718e-01
  9.991064e-01
  9.999000e-01
  9.997401e-01
  9.996899e-01
  9.997956e-01
  9.999000e-01
  9.997069e-01
  9.923556e-01
  9.411895e-01
  7.085472e-01
  2.091848e-01
  5.643466e-02
  2.446644e-02
  1.685842e-02
  1.402327e-02
  1.302991e-02
  1.567061e-02
  2.990643e-02
  7.997157e-02
  2.227040e-01
  5.092409e-01
  7.751821e-01
  9.007879e-01
  9.468157e-01
  9.479792e-01
  8.864207e-01
  6.519185e-01
  2.208592e-01
  7.098367e-02
  3.745049e-02
  3.021566e-02
  2.841139e-02
  2.774543e-02
  2.727015e-02
  2.670179e-02
  2.605793e-02
  2.635793e-02
  3.362739e-02
  7.962023e-02
  3.047162e-01
  8.336105e-01
  9.761645e-01
  9.995936e-01
  9.999000e-01
  9.999000e-01
  9.960675e-01
  9.744491e-01
  8.757330e-01
  5.245454e-01
  1.431669e-01
  3.424697e-02
  1.258236e-02
  8.541247e-03
  8.755692e-03
  1.114009e-02
  1.399324e-02
  1.679161e-02
  1.981866e-02
  2.624033e-02
  5.380728e-02
  1.907450e-01
  6.766099e-01
  9.378390e-01
  9.936446e-01
  9.999000e-01
  9.999000e-01
  9.999000e-01
  9.999000e-01
  9.999000e-01
  9.999000e-01
  9.999000e-01
  9.982046e-01
  9.604150e-01
  7.624734e-01
  2.342677e-01
  6.200584e-02
  2.632457e-02
  1.827093e-02
  1.537833e-02
  1.373568e-02
  1.327053e-02
  1.590657e-02
  2.761540e-02
  6.410760e-02
  1.572423e-01
  3.388179e-01
  5.818669e-01
  7.207912e-01
  7.256016e-01
  5.830104e-01
  3.012353e-01
  1.068574e-01
  4.749242e-02
  3.317961e-02
  2.990381e-02
  2.917746e-02
  2.906357e-02
  2.903347e-02
  2.876376e-02
  2.808442e-02
  2.787589e-02
  3.396293e-02
  7.656891e-02
  2.901226e-01
  8.203969e-01
  9.718583e-01
  9.981567e-01
  9.999000e-01
  9.999000e-01
  9.982363e-01
  9.886415e-01
  9.434773e-01
  7.510977e-01
  2.894109e-01
  6.988671e-02
  1.782315e-02
  1.178347e-02
  7.250105e-03
  8.323564e-03
  1.075307e-02
  1.348840e-02
  1.660542e-02
  2.239360e-02
  4.386514e-02
  1.462490e-01
  5.398935e-01
  8.838494e-01
  9.767178e-01
  9.954670e-01
  9.986323e-01
  9.990921e-01
  9.992085e-01
  9.993928e-01
  9.995371e-01
  9.984604e-01
  9.889465e-01
  9.311546e-01
  6.825329e-01
  1.995407e-01
  5.575666e-02
  2.604964e-02
  1.931615e-02
  1.692537e-02
  1.557961e-02
  1.505406e-02
  1.609342e-02
  2.019410e-02
  3.039268e-02
  5.366768e-02
  1.000006e-01
  1.692392e-01
  2.211698e-01
  2.215887e-01
  1.687021e-01
  9.506708e-02
  5.004881e-02
  3.453529e-02
  3.046976e-02
  2.978660e-02
  3.014650e-02
  3.104253e-02
  3.231021e-02
  3.328708e-02
  3.293098e-02
  3.156067e-02
  3.454848e-02
  6.714173e-02
  2.421436e-01
  7.589218e-01
  9.536243e-01
  9.936471e-01
  9.996919e-01
  9.999000e-01
  9.987869e-01
  9.940244e-01
  9.734042e-01
  8.811909e-01
  5.501931e-01
  1.641738e-01
  3.993882e-02
  3.223010e-02
  1.195189e-02
  8.362241e-03
  9.412117e-03
  1.178935e-02
  1.469147e-02
  1.903588e-02
  3.132167e-02
  8.313221e-02
  2.911463e-01
  6.954707e-01
  8.948116e-01
  9.560884e-01
  9.730237e-01
  9.778769e-01
  9.794613e-01
  9.797155e-01
  9.779449e-01
  9.693111e-01
  9.339652e-01
  8.011823e-01
  4.365661e-01
  1.244092e-01
  4.215567e-02
  2.443335e-02
  2.013267e-02
  1.868699e-02
  1.855683e-02
  2.078038e-02
  2.780870e-02
  4.072034e-02
  5.594501e-02
  7.110143e-02
  8.640223e-02
  9.901961e-02
  9.903397e-02
  8.284733e-02
  6.070601e-02
  4.244987e-02
  3.279897e-02
  2.964360e-02
  2.929409e-02
  3.008231e-02
  3.183637e-02
  3.534581e-02
  4.161439e-02
  4.843022e-02
  5.015491e-02
  4.473523e-02
  3.960182e-02
  5.564281e-02
  1.700908e-01
  5.951499e-01
  8.970799e-01
  9.781779e-01
  9.957368e-01
  9.988620e-01
  9.985714e-01
  9.960635e-01
  9.868180e-01
  9.478481e-01
  7.891202e-01
  3.827641e-01
  1.141351e-01
  1.167890e-01
  4.202373e-02
  1.900381e-02
  1.296627e-02
  1.256614e-02
  1.422256e-02
  1.704807e-02
  2.288927e-02
  4.207837e-02
  1.125055e-01
  3.091981e-01
  5.947967e-01
  7.624941e-01
  8.243953e-01
  8.466320e-01
  8.548892e-01
  8.551878e-01
  8.450102e-01
  8.098857e-01
  7.024186e-01
  4.445213e-01
  1.780076e-01
  6.186645e-02
  3.063661e-02
  2.303814e-02
  2.108130e-02
  2.121209e-02
  2.496595e-02
  3.964194e-02
  8.027837e-02
  1.516463e-01
  2.222774e-01
  2.697446e-01
  2.895882e-01
  2.747274e-01
  2.172580e-01
  1.306625e-01
  6.571560e-02
  3.807686e-02
  2.981601e-02
  2.832886e-02
  2.901733e-02
  3.098904e-02
  3.568740e-02
  4.823104e-02
  7.739785e-02
  1.138177e-01
  1.268128e-01
  1.021502e-01
  6.566900e-02
  5.145452e-02
  9.793535e-02
  3.278883e-01
  7.380529e-01
  9.253786e-01
  9.794227e-01
  9.935564e-01
  9.967335e-01
  9.962647e-01
  9.923970e-01
  9.775738e-01
  9.184938e-01
  7.144059e-01
  3.346426e-01
  3.962344e-01
  1.758903e-01
  7.733354e-02
  3.845171e-02
  2.307154e-02
  1.798004e-02
  1.757102e-02
  1.962472e-02
  2.547310e-02
  4.305597e-02
  8.876853e-02
  1.664092e-01
  2.408278e-01
  2.941941e-01
  3.285697e-01
  3.467659e-01
  3.479366e-01
  3.288047e-01
  2.855681e-01
  2.158763e-01
  1.282439e-01
  6.240388e-02
  3.400305e-02
  2.510756e-02
  2.263391e-02
  2.251654e-02
  2.580243e-02
  4.174356e-02
  1.045464e-01
  2.859329e-01
  5.633632e-01
  7.430151e-01
  8.092357e-01
  8.233922e-01
  7.967041e-01
  6.854241e-01
  4.189758e-01
  1.645312e-01
  6.030546e-02
  3.372275e-02
  2.876976e-02
  2.931204e-02
  3.297606e-02
  4.530317e-02
  8.953134e-02
  2.187476e-01
  3.793352e-01
  4.368239e-01
  3.377574e-01
  1.737564e-01
  7.326479e-02
  5.992063e-02
  1.389779e-01
  4.049969e-01
  7.530550e-01
  9.163446e-01
  9.713320e-01
  9.886937e-01
  9.936650e-01
  9.936945e-01
  9.889356e-01
  9.704862e-01
  9.054100e-01
  7.195001e-01
  8.020966e-01
  5.824472e-01
  3.194497e-01
  1.612914e-01
  7.651833e-02
  3.777635e-02
  2.381090e-02
  2.055540e-02
  2.113707e-02
  2.459559e-02
  3.298377e-02
  4.685832e-02
  6.123257e-02
  7.265872e-02
  8.076312e-02
  8.567801e-02
  8.690866e-02
  8.348294e-02
  7.460373e-02
  6.049416e-02
  4.395618e-02
  3.156283e-02
  2.560492e-02
  2.342468e-02
  2.298512e-02
  2.460645e-02
  3.411918e-02
  8.012017e-02
  2.703268e-01
  6.731788e-01
  8.844960e-01
  9.517464e-01
  9.704336e-01
  9.737363e-01
  9.656745e-01
  9.263598e-01
  7.799094e-01
  4.004427e-01
  1.162712e-01
  4.408058e-02
  3.048163e-02
  3.001585e-02
  3.633613e-02
  6.450414e-02
  1.886731e-01
  5.766100e-01
  8.275709e-01
  8.773217e-01
  7.882387e-01
  4.721128e-01
  1.427410e-01
  5.469239e-02
  5.846388e-02
  1.428047e-01
  3.721337e-01
  6.982150e-01
  8.804899e-01
  9.537559e-01
  9.807712e-01
  9.898728e-01
  9.914963e-01
  9.873214e-01
  9.708586e-01
  9.216108e-01
  9.523904e-01
  8.942645e-01
  7.785464e-01
  5.654136e-01
  2.910847e-01
  1.177635e-01
  4.656181e-02
  2.663311e-02
  2.189635e-02
  2.102126e-02
  2.160677e-02
  2.321999e-02
  2.520591e-02
  2.720485e-02
  2.928129e-02
  3.141880e-02
  3.320992e-02
  3.400491e-02
  3.325562e-02
  3.094262e-02
  2.783970e-02
  2.530083e-02
  2.386291e-02
  2.326775e-02
  2.359536e-02
  2.695072e-02
  4.512580e-02
  1.369644e-01
  5.009971e-01
  8.710564e-01
  9.737034e-01
  9.948827e-01
  9.986842e-01
  9.992038e-01
  9.975708e-01
  9.855984e-01
  9.204101e-01
  6.522295e-01
  1.890534e-01
  5.739854e-02
  3.265591e-02
  3.070515e-02
  3.933449e-02
  8.272899e-02
  2.812185e-01
  7.870300e-01
  9.615620e-01
  9.887723e-01
  9.426079e-01
  7.133344e-01
  2.176977e-01
  6.243057e-02
  3.452069e-02
  4.852511e-02
  1.138092e-01
  2.819976e-01
  5.784426e-01
  8.107297e-01
  9.237344e-01
  9.689949e-01
  9.854816e-01
  9.902408e-01
  9.885268e-01
  9.786189e-01
  9.885151e-01
  9.780440e-01
  9.524667e-01
  8.868046e-01
  7.120288e-01
  3.560345e-01
  1.099201e-01
  4.141586e-02
  2.558610e-02
  2.140750e-02
  1.978979e-02
  1.906299e-02
  1.911776e-02
  2.034831e-02
  2.328222e-02
  2.778973e-02
  3.244927e-02
  3.541692e-02
  3.532639e-02
  3.241728e-02
  2.852849e-02
  2.569075e-02
  2.416550e-02
  2.353376e-02
  2.399317e-02
  2.832349e-02
  5.221507e-02
  1.749618e-01
  6.331005e-01
  9.276223e-01
  9.919938e-01
  9.999000e-01
  9.999000e-01
  9.999000e-01
  9.999000e-01
  9.961989e-01
  9.547034e-01
  7.464237e-01
  2.270775e-01
  6.461225e-02
  3.382463e-02
  3.094501e-02
  3.995025e-02
  8.667906e-02
  3.013322e-01
  8.181366e-01
  9.767086e-01
  9.999000e-01
  9.602659e-01
  7.508946e-01
  2.330588e-01
  6.400798e-02
  2.867939e-02
  2.427418e-02
  3.609403e-02
  7.786262e-02
  1.866866e-01
  4.118720e-01
  7.067173e-01
  8.787591e-01
  9.528039e-01
  9.807535e-01
  9.901556e-01
  9.918678e-01
  9.957303e-01
  9.963986e-01
  9.929045e-01
  9.786105e-01
  9.153305e-01
  6.758977e-01
  2.181836e-01
  6.513715e-02
  3.107704e-02
  2.277825e-02
  1.983637e-02
  1.871643e-02
  1.973920e-02
  2.501388e-02
  3.751899e-02
  5.694029e-02
  7.574491e-02
  8.558252e-02
  8.065868e-02
  6.310029e-02
  4.287415e-02
  3.069317e-02
  2.565560e-02
  2.387178e-02
  2.389106e-02
  2.772286e-02
  4.952070e-02
  1.615522e-01
  5.906393e-01
  9.121726e-01
  9.878694e-01
  9.999000e-01
  9.999000e-01
  9.999000e-01
  9.999000e-01
  9.924133e-01
  9.411039e-01
  7.060803e-01
  2.089867e-01
  6.108637e-02
  3.342354e-02
  3.107408e-02
  3.866140e-02
  7.505402e-02
  2.407488e-01
  7.117497e-01
  9.210192e-01
  9.552364e-01
  8.878465e-01
  6.064643e-01
  1.786482e-01
  5.415703e-02
  2.668675e-02
  1.980922e-02
  1.913768e-02
  2.585485e-02
  4.993748e-02
  1.167908e-01
  2.798327e-01
  5.778506e-01
  8.191164e-01
  9.330657e-01
  9.759910e-01
  9.908361e-01
  9.908082e-01
  9.981933e-01
  9.999000e-01
  9.997509e-01
  9.717493e-01
  8.158167e-01
  3.061411e-01
  8.575733e-02
  3.572337e-02
  2.389245e-02
  2.020987e-02
  2.027905e-02
  2.745114e-02
  5.271615e-02
  1.129355e-01
  2.049676e-01
  2.849443e-01
  3.209789e-01
  2.927096e-01
  2.063603e-01
  1.038184e-01
  4.793386e-02
  2.959220e-02
  2.439048e-02
  2.331781e-02
  2.551248e-02
  3.927780e-02
  1.084054e-01
  3.918221e-01
  8.069963e-01
  9.512111e-01
  9.869554e-01
  9.947819e-01
  9.952773e-01
  9.897206e-01
  9.640781e-01
  8.593961e-01
  5.149894e-01
  1.453322e-01
  4.957472e-02
  3.276518e-02
  3.352317e-02
  4.107527e-02
  6.265984e-02
  1.447085e-01
  4.085260e-01
  6.821302e-01
  7.422546e-01
  6.060325e-01
  2.938875e-01
  9.633664e-02
  4.059685e-02
  2.625590e-02
  2.099028e-02
  1.788318e-02
  1.659302e-02
  1.941468e-02
  3.299890e-02
  7.577914e-02
  1.930440e-01
  4.484504e-01
  7.530616e-01
  9.108493e-01
  9.700718e-01
  9.572382e-01
  9.865208e-01
  9.976804e-01
  9.996977e-01
  9.743359e-01
  8.254185e-01
  3.177461e-01
  8.926468e-02
  3.662961e-02
  2.410274e-02
  2.129777e-02
  2.731922e-02
  5.931236e-02
  1.663795e-01
  4.047201e-01
  6.787229e-01
  8.062564e-01
  8.394641e-01
  8.052420e-01
  6.470518e-01
  3.123952e-01
  9.800084e-02
  3.899745e-02
  2.545552e-02
  2.250776e-02
  2.297780e-02
  2.915380e-02
  5.909204e-02
  1.840462e-01
  5.197808e-01
  8.020084e-01
  9.145315e-01
  9.503875e-01
  9.535278e-01
  9.281822e-01
  8.420301e-01
  6.122291e-01
  2.484008e-01
  7.877618e-02
  3.896919e-02
  3.625640e-02
  4.814715e-02
  6.863024e-02
  8.798189e-02
  1.108073e-01
  1.643208e-01
  2.312310e-01
  2.437540e-01
  1.861684e-01
  1.002446e-01
  5.174624e-02
  3.629588e-02
  3.125474e-02
  2.716242e-02
  2.241450e-02
  1.825858e-02
  1.574300e-02
  1.622076e-02
  2.414434e-02
  5.294182e-02
  1.387138e-01
  3.525648e-01
  6.832000e-01
  8.789145e-01
  8.085953e-01
  9.164956e-01
  9.576175e-01
  9.625043e-01
  9.146319e-01
  7.024558e-01
  2.404767e-01
  7.242292e-02
  3.315429e-02
  2.368426e-02
  2.538947e-02
  5.110074e-02
  1.622215e-01
  4.706558e-01
  7.918189e-01
  9.259353e-01
  9.683868e-01
  9.783356e-01
  9.666077e-01
  8.943992e-01
  6.215083e-01
  1.829125e-01
  5.369126e-02
  2.690490e-02
  2.157381e-02
  2.086410e-02
  2.279349e-02
  3.224691e-02
  6.870910e-02
  1.783161e-01
  3.827973e-01
  6.145894e-01
  7.308702e-01
  7.428906e-01
  6.584201e-01
  4.505303e-01
  2.256654e-01
  9.093218e-02
  4.371189e-02
  3.716501e-02
  5.524907e-02
  1.149341e-01
  2.099273e-01
  2.653247e-01
  2.442248e-01
  1.671333e-01
  1.081143e-01
  8.367934e-02
  6.563845e-02
  5.051343e-02
  4.758598e-02
  5.495131e-02
  5.955517e-02
  5.277294e-02
  3.824087e-02
  2.611565e-02
  1.932264e-02
  1.580357e-02
  1.506667e-02
  1.993163e-02
  4.033125e-02
  1.044731e-01
  2.730130e-01
  5.767358e-01
  3.792174e-01
  6.228242e-01
  7.527726e-01
  7.690339e-01
  6.589787e-01
  3.676065e-01
  1.240143e-01
  4.768397e-02
  2.781528e-02
  2.409435e-02
  3.751416e-02
  1.143838e-01
  3.958941e-01
  7.855133e-01
  9.420167e-01
  9.862013e-01
  9.977002e-01
  9.999000e-01
  9.967576e-01
  9.607524e-01
  7.767937e-01
  2.503890e-01
  6.536499e-02
  2.752536e-02
  2.041605e-02
  1.919273e-02
  1.953575e-02
  2.191338e-02
  3.034119e-02
  5.394050e-02
  1.007944e-01
  1.634880e-01
  2.071565e-01
  2.132206e-01
  1.798244e-01
  1.198464e-01
  6.766565e-02
  4.020573e-02
  3.376581e-02
  4.711144e-02
  1.142976e-01
  3.498627e-01
  6.633348e-01
  7.729924e-01
  7.005392e-01
  4.128970e-01
  1.433057e-01
  6.322776e-02
  4.652706e-02
  5.386874e-02
  9.259972e-02
  1.600136e-01
  1.993933e-01
  1.730240e-01
  1.027708e-01
  4.972814e-02
  2.807809e-02
  1.987619e-02
  1.618851e-02
  1.505049e-02
  1.822115e-02
  3.258065e-02
  7.607382e-02
  1.826618e-01
  9.761621e-02
  1.679160e-01
  2.241766e-01
  2.371156e-01
  1.936654e-01
  1.119742e-01
  5.330401e-02
  3.090922e-02
  2.387588e-02
  2.747500e-02
  6.541430e-02
  2.458010e-01
  6.926198e-01
  9.232664e-01
  9.842527e-01
  9.980029e-01
  9.999000e-01
  9.999000e-01
  9.994960e-01
  9.730541e-01
  8.174770e-01
  2.761726e-01
  6.878153e-02
  2.658373e-02
  1.899008e-02
  1.777795e-02
  1.779345e-02
  1.837162e-02
  2.014463e-02
  2.465408e-02
  3.324344e-02
  4.463320e-02
  5.315608e-02
  5.485732e-02
  4.925421e-02
  3.941499e-02
  3.142728e-02
  2.876455e-02
  3.417486e-02
  6.473739e-02
  2.073327e-01
  6.634136e-01
  9.108674e-01
  9.634962e-01
  9.219681e-01
  6.981166e-01
  2.287723e-01
  7.645845e-02
  5.520417e-02
  9.960215e-02
  2.755348e-01
  5.520290e-01
  6.829632e-01
  6.072690e-01
  3.436751e-01
  1.214658e-01
  4.689817e-02
  2.647603e-02
  1.978457e-02
  1.676941e-02
  1.574287e-02
  1.779125e-02
  2.667714e-02
  5.008391e-02
  3.214059e-02
  4.568659e-02
  5.768361e-02
  6.175162e-02
  5.473919e-02
  4.043031e-02
  2.887461e-02
  2.312335e-02
  2.228748e-02
  3.543205e-02
  1.162414e-01
  4.558000e-01
  8.553231e-01
  9.712236e-01
  9.957788e-01
  9.999000e-01
  9.999000e-01
  9.999000e-01
  9.979663e-01
  9.697312e-01
  8.084126e-01
  2.640307e-01
  6.410026e-02
  2.423992e-02
  1.739891e-02
  1.652757e-02
  1.668977e-02
  1.708984e-02
  1.778381e-02
  1.908629e-02
  2.121867e-02
  2.385784e-02
  2.602741e-02
  2.698007e-02
  2.663576e-02
  2.568591e-02
  2.545161e-02
  2.740617e-02
  3.597434e-02
  7.493660e-02
  2.558158e-01
  7.713641e-01
  9.643367e-01
  9.981082e-01
  9.660484e-01
  7.806382e-01
  2.677553e-01
  8.704789e-02
  7.415440e-02