# vtk DataFile Version 2.0
time_10.vtk
ASCII
DATASET STRUCTURED_GRID
DIMENSIONS    64    64     1
POINTS    4096 float
  0.000000e+00   0.000000e+00   0.000000e+00
  0.000000e+00   1.000000e+00   0.000000e+00
  0.000000e+00   2.000000e+00   0.000000e+00
  0.000000e+00   3.000000e+00   0.000000e+00
  0.000000e+00   4.000000e+00   0.000000e+00
  0.000000e+00   5.000000e+00   0.000000e+00
  0.000000e+00   6.000000e+00   0.000000e+00
  0.000000e+00   7.000000e+00   0.000000e+00
  0.000000e+00   8.000000e+00   0.000000e+00
  0.000000e+00   9.000000e+00   0.000000e+00
  0.000000e+00   1.000000e+01   0.000000e+00
  0.000000e+00   1.100000e+01   0.000000e+00
  0.000000e+00   1.200000e+01   0.000000e+00
  0.000000e+00   1.300000e+01   0.000000e+00
  0.000000e+00   1.400000e+01   0.000000e+00
  0.000000e+00   1.500000e+01   0.000000e+00
  0.000000e+00   1.600000e+01   0.000000e+00
  0.000000e+00   1.700000e+01   0.000000e+00
  0.000000e+00   1.800000e+01   0.000000e+00
  0.000000e+00   1.900000e+01   0.000000e+00
  0.000000e+00   2.000000e+01   0.000000e+00
  0.000000e+00   2.100000e+01   0.000000e+00
  0.000000e+00   2.200000e+01   0.000000e+00
  0.000000e+00   2.300000e+01   0.000000e+00
  0.000000e+00   2.400000e+01   0.000000e+00
  0.000000e+00   2.500000e+01   0.000000e+00
  0.000000e+00   2.600000e+01   0.000000e+00
  0.000000e+00   2.700000e+01   0.000000e+00
  0.000000e+00   2.800000e+01   0.000000e+00
  0.000000e+00   2.900000e+01   0.000000e+00
  0.000000e+00   3.000000e+01   0.000000e+00
  0.000000e+00   3.100000e+01   0.000000e+00
  0.000000e+00   3.200000e+01   0.000000e+00
  0.000000e+00   3.300000e+01   0.000000e+00
  0.000000e+00   3.400000e+01   0.000000e+00
  0.000000e+00   3.500000e+01   0.000000e+00
  0.000000e+00   3.600000e+01   0.000000e+00
  0.000000e+00   3.700000e+01   0.000000e+00
  0.000000e+00   3.800000e+01   0.000000e+00
  0.000000e+00   3.900000e+01   0.000000e+00
  0.000000e+00   4.000000e+01   0.000000e+00
  0.000000e+00   4.100000e+01   0.000000e+00
  0.000000e+00   4.200000e+01   0.000000e+00
  0.000000e+00   4.300000e+01   0.000000e+00
  0.000000e+00   4.400000e+01   0.000000e+00
  0.000000e+00   4.500000e+01   0.000000e+00
  0.000000e+00   4.600000e+01   0.000000e+00
  0.000000e+00   4.700000e+01   0.000000e+00
  0.000000e+00   4.800000e+01   0.000000e+00
  0.000000e+00   4.900000e+01   0.000000e+00
  0.000000e+00   5.000000e+01   0.000000e+00
  0.000000e+00   5.100000e+01   0.000000e+00
  0.000000e+00   5.200000e+01   0.000000e+00
  0.000000e+00   5.300000e+01   0.000000e+00
  0.000000e+00   5.400000e+01   0.000000e+00
  0.000000e+00   5.500000e+01   0.000000e+00
  0.000000e+00   5.600000e+01   0.000000e+00
  0.000000e+00   5.700000e+01   0.000000e+00
  0.000000e+00   5.800000e+01   0.000000e+00
  0.000000e+00   5.900000e+01   0.000000e+00
  0.000000e+00   6.000000e+01   0.000000e+00
  0.000000e+00   6.100000e+01   0.000000e+00
  0.000000e+00   6.200000e+01   0.000000e+00
  0.000000e+00   6.300000e+01   0.000000e+00
  1.000000e+00   0.000000e+00   0.000000e+00
  1.000000e+00   1.000000e+00   0.000000e+00
  1.000000e+00   2.000000e+00   0.000000e+00
  1.000000e+00   3.000000e+00   0.000000e+00
  1.000000e+00   4.000000e+00   0.000000e+00
  1.000000e+00   5.000000e+00   0.000000e+00
  1.000000e+00   6.000000e+00   0.000000e+00
  1.000000e+00   7.000000e+00   0.000000e+00
  1.000000e+00   8.000000e+00   0.000000e+00
  1.000000e+00   9.000000e+00   0.000000e+00
  1.000000e+00   1.000000e+01   0.000000e+00
  1.000000e+00   1.100000e+01   0.000000e+00
  1.000000e+00   1.200000e+01   0.000000e+00
  1.000000e+00   1.300000e+01   0.000000e+00
  1.000000e+00   1.400000e+01   0.000000e+00
  1.000000e+00   1.500000e+01   0.000000e+00
  1.000000e+00   1.600000e+01   0.000000e+00
  1.000000e+00   1.700000e+01   0.000000e+00
  1.000000e+00   1.800000e+01   0.000000e+00
  1.000000e+00   1.900000e+01   0.000000e+00
  1.000000e+00   2.000000e+01   0.000000e+00
  1.000000e+00   2.100000e+01   0.000000e+00
  1.000000e+00   2.200000e+01   0.000000e+00
  1.000000e+00   2.300000e+01   0.000000e+00
  1.000000e+00   2.400000e+01   0.000000e+00
  1.000000e+00   2.500000e+01   0.000000e+00
  1.000000e+00   2.600000e+01   0.000000e+00
  1.000000e+00   2.700000e+01   0.000000e+00
  1.000000e+00   2.800000e+01   0.000000e+00
  1.000000e+00   2.900000e+01   0.000000e+00
  1.000000e+00   3.000000e+01   0.000000e+00
  1.000000e+00   3.100000e+01   0.000000e+00
  1.000000e+00   3.200000e+01   0.000000e+00
  1.000000e+00   3.300000e+01   0.000000e+00
  1.000000e+00   3.400000e+01   0.000000e+00
  1.000000e+00   3.500000e+01   0.000000e+00
  1.000000e+00   3.600000e+01   0.000000e+00
  1.000000e+00   3.700000e+01   0.000000e+00
  1.000000e+00   3.800000e+01   0.000000e+00
  1.000000e+00   3.900000e+01   0.000000e+00
  1.000000e+00   4.000000e+01   0.000000e+00
  1.000000e+00   4.100000e+01   0.000000e+00
  1.000000e+00   4.200000e+01   0.000000e+00
  1.000000e+00   4.300000e+01   0.000000e+00
  1.000000e+00   4.400000e+01   0.000000e+00
  1.000000e+00   4.500000e+01   0.000000e+00
  1.000000e+00   4.600000e+01   0.000000e+00
  1.000000e+00   4.700000e+01   0.000000e+00
  1.000000e+00   4.800000e+01   0.000000e+00
  1.000000e+00   4.900000e+01   0.000000e+00
  1.000000e+00   5.000000e+01   0.000000e+00
  1.000000e+00   5.100000e+01   0.000000e+00
  1.000000e+00   5.200000e+01   0.000000e+00
  1.000000e+00   5.300000e+01   0.000000e+00
  1.000000e+00   5.400000e+01   0.000000e+00
  1.000000e+00   5.500000e+01   0.000000e+00
  1.000000e+00   5.600000e+01   0.000000e+00
  1.000000e+00   5.700000e+01   0.000000e+00
  1.000000e+00   5.800000e+01   0.000000e+00
  1.000000e+00   5.900000e+01   0.000000e+00
  1.000000e+00   6.000000e+01   0.000000e+00
  1.000000e+00   6.100000e+01   0.000000e+00
  1.000000e+00   6.200000e+01   0.000000e+00
  1.000000e+00   6.300000e+01   0.000000e+00
  2.000000e+00   0.000000e+00   0.000000e+00
  2.000000e+00   1.000000e+00   0.000000e+00
  2.000000e+00   2.000000e+00   0.000000e+00
  2.000000e+00   3.000000e+00   0.000000e+00
  2.000000e+00   4.000000e+00   0.000000e+00
  2.000000e+00   5.000000e+00   0.000000e+00
  2.000000e+00   6.000000e+00   0.000000e+00
  2.000000e+00   7.000000e+00   0.000000e+00
  2.000000e+00   8.000000e+00   0.000000e+00
  2.000000e+00   9.000000e+00   0.000000e+00
  2.000000e+00   1.000000e+01   0.000000e+00
  2.000000e+00   1.100000e+01   0.000000e+00
  2.000000e+00   1.200000e+01   0.000000e+00
  2.000000e+00   1.300000e+01   0.000000e+00
  2.000000e+00   1.400000e+01   0.000000e+00
  2.000000e+00   1.500000e+01   0.000000e+00
  2.000000e+00   1.600000e+01   0.000000e+00
  2.000000e+00   1.700000e+01   0.000000e+00
  2.000000e+00   1.800000e+01   0.000000e+00
  2.000000e+00   1.900000e+01   0.000000e+00
  2.000000e+00   2.000000e+01   0.000000e+00
  2.000000e+00   2.100000e+01   0.000000e+00
  2.000000e+00   2.200000e+01   0.000000e+00
  2.000000e+00   2.300000e+01   0.000000e+00
  2.000000e+00   2.400000e+01   0.000000e+00
  2.000000e+00   2.500000e+01   0.000000e+00
  2.000000e+00   2.600000e+01   0.000000e+00
  2.000000e+00   2.700000e+01   0.000000e+00
  2.000000e+00   2.800000e+01   0.000000e+00
  2.000000e+00   2.900000e+01   0.000000e+00
  2.000000e+00   3.000000e+01   0.000000e+00
  2.000000e+00   3.100000e+01   0.000000e+00
  2.000000e+00   3.200000e+01   0.000000e+00
  2.000000e+00   3.300000e+01   0.000000e+00
  2.000000e+00   3.400000e+01   0.000000e+00
  2.000000e+00   3.500000e+01   0.000000e+00
  2.000000e+00   3.600000e+01   0.000000e+00
  2.000000e+00   3.700000e+01   0.000000e+00
  2.000000e+00   3.800000e+01   0.000000e+00
  2.000000e+00   3.900000e+01   0.000000e+00
  2.000000e+00   4.000000e+01   0.000000e+00
  2.000000e+00   4.100000e+01   0.000000e+00
  2.000000e+00   4.200000e+01   0.000000e+00
  2.000000e+00   4.300000e+01   0.000000e+00
  2.000000e+00   4.400000e+01   0.000000e+00
  2.000000e+00   4.500000e+01   0.000000e+00
  2.000000e+00   4.600000e+01   0.000000e+00
  2.000000e+00   4.700000e+01   0.000000e+00
  2.000000e+00   4.800000e+01   0.000000e+00
  2.000000e+00   4.900000e+01   0.000000e+00
  2.000000e+00   5.000000e+01   0.000000e+00
  2.000000e+00   5.100000e+01   0.000000e+00
  2.000000e+00   5.200000e+01   0.000000e+00
  2.000000e+00   5.300000e+01   0.000000e+00
  2.000000e+00   5.400000e+01   0.000000e+00
  2.000000e+00   5.500000e+01   0.000000e+00
  2.000000e+00   5.600000e+01   0.000000e+00
  2.000000e+00   5.700000e+01   0.000000e+00
  2.000000e+00   5.800000e+01   0.000000e+00
  2.000000e+00   5.900000e+01   0.000000e+00
  2.000000e+00   6.000000e+01   0.000000e+00
  2.000000e+00   6.100000e+01   0.000000e+00
  2.000000e+00   6.200000e+01   0.000000e+00
  2.000000e+00   6.300000e+01   0.000000e+00
  3.000000e+00   0.000000e+00   0.000000e+00
  3.000000e+00   1.000000e+00   0.000000e+00
  3.000000e+00   2.000000e+00   0.000000e+00
  3.000000e+00   3.000000e+00   0.000000e+00
  3.000000e+00   4.000000e+00   0.000000e+00
  3.000000e+00   5.000000e+00   0.000000e+00
  3.000000e+00   6.000000e+00   0.000000e+00
  3.000000e+00   7.000000e+00   0.000000e+00
  3.000000e+00   8.000000e+00   0.000000e+00
  3.000000e+00   9.000000e+00   0.000000e+00
  3.000000e+00   1.000000e+01   0.000000e+00
  3.000000e+00   1.100000e+01   0.000000e+00
  3.000000e+00   1.200000e+01   0.000000e+00
  3.000000e+00   1.300000e+01   0.000000e+00
  3.000000e+00   1.400000e+01   0.000000e+00
  3.000000e+00   1.500000e+01   0.000000e+00
  3.000000e+00   1.600000e+01   0.000000e+00
  3.000000e+00   1.700000e+01   0.000000e+00
  3.000000e+00   1.800000e+01   0.000000e+00
  3.000000e+00   1.900000e+01   0.000000e+00
  3.000000e+00   2.000000e+01   0.000000e+00
  3.000000e+00   2.100000e+01   0.000000e+00
  3.000000e+00   2.200000e+01   0.000000e+00
  3.000000e+00   2.300000e+01   0.000000e+00
  3.000000e+00   2.400000e+01   0.000000e+00
  3.000000e+00   2.500000e+01   0.000000e+00
  3.000000e+00   2.600000e+01   0.000000e+00
[...]
POINT_DATA  4096
SCALARS CON float 1
LOOKUP_TABLE default
  7.155703e-01
  9.477414e-01
  9.955671e-01
  9.999000e-01
  9.999000e-01
  9.940744e-01
  9.638279e-01
  8.218870e-01
  3.712212e-01
  9.709351e-02
  3.217962e-02
  1.839347e-02
  1.537489e-02
  1.579087e-02
  1.877089e-02
  2.394595e-02
  2.987822e-02
  3.455754e-02
  3.710389e-02
  3.805839e-02
  3.768741e-02
  3.555196e-02
  3.164199e-02
  2.725078e-02
  2.641047e-02
  4.094609e-02
  1.115752e-01
  3.392656e-01
  7.064998e-01
  8.996831e-01
  9.603361e-01
  9.696719e-01
  9.523786e-01
  9.117739e-01
  8.513165e-01
  7.826232e-01
  6.778440e-01
  4.851875e-01
  2.673508e-01
  1.195174e-01
  5.256101e-02
  3.392250e-02
  3.321218e-02
  4.458912e-02
  7.581481e-02
  1.214446e-01
  1.412569e-01
  1.117485e-01
  6.820322e-02
  4.580606e-02
  4.128361e-02
  6.246593e-02
  1.676889e-01
  4.731508e-01
  7.432094e-01
  8.236973e-01
  7.857893e-01
  5.918063e-01
  2.537549e-01
  7.896673e-02
  3.419403e-02
  2.981091e-02
  5.792453e-02
  2.089517e-01
  7.022028e-01
  9.405966e-01
  9.917649e-01
  9.967264e-01
  9.896857e-01
  9.654688e-01
  8.834967e-01
  6.189540e-01
  2.066420e-01
  6.136210e-02
  2.887008e-02
  2.197064e-02
  2.103904e-02
  2.359251e-02
  3.042259e-02
  4.120420e-02
  5.397436e-02
  6.722977e-02
  7.997816e-02
  9.026097e-02
  9.419271e-02
  8.793442e-02
  7.137301e-02
  4.968386e-02
  3.313236e-02
  2.907692e-02
  4.574763e-02
  1.206088e-01
  3.413156e-01
  6.947257e-01
  8.921197e-01
  9.595977e-01
  9.768920e-01
  9.765901e-01
  9.690666e-01
  9.571049e-01
  9.321872e-01
  8.674439e-01
  7.018377e-01
  3.631173e-01
  1.194329e-01
  5.182564e-02
  4.724472e-02
  8.575885e-02
  2.157140e-01
  4.064617e-01
  4.771939e-01
  3.456947e-01
  1.517091e-01
  6.885495e-02
  5.314586e-02
  9.955860e-02
  3.325072e-01
  7.745544e-01
  9.393957e-01
  9.743377e-01
  9.601476e-01
  8.648484e-01
  5.380465e-01
  1.490979e-01
  4.598442e-02
  3.139114e-02
  5.804929e-02
  2.060674e-01
  5.068406e-01
  8.387538e-01
  9.403994e-01
  9.545928e-01
  9.285836e-01
  8.456332e-01
  6.423133e-01
  3.034236e-01
  1.115551e-01
  6.376811e-02
  5.812301e-02
  6.074352e-02
  6.772514e-02
  8.486757e-02
  1.188886e-01
  1.661567e-01
  2.155921e-01
  2.637767e-01
  3.104176e-01
  3.486547e-01
  3.619231e-01
  3.328518e-01
  2.568282e-01
  1.502104e-01
  6.669687e-02
  3.499497e-02
  2.879668e-02
  4.483193e-02
  1.145222e-01
  3.179155e-01
  6.673085e-01
  8.807313e-01
  9.589034e-01
  9.835500e-01
  9.910758e-01
  9.928738e-01
  9.901092e-01
  9.760802e-01
  9.158555e-01
  6.911419e-01
  2.419471e-01
  8.389677e-02
  7.200425e-02
  1.723476e-01
  5.369295e-01
  8.268330e-01
  8.801052e-01
  7.408673e-01
  3.191096e-01
  1.071421e-01
  6.742229e-02
  1.411852e-01
  5.016628e-01
  8.856665e-01
  9.830350e-01
  9.999000e-01
  9.949137e-01
  9.477237e-01
  7.299098e-01
  2.156343e-01
  5.605211e-02
  2.960858e-02
  4.581844e-02
  1.439815e-01
  2.164203e-01
  5.004794e-01
  7.022188e-01
  7.420252e-01
  6.619624e-01
  4.616763e-01
  2.547391e-01
  1.449233e-01
  1.410429e-01
  1.900077e-01
  2.343749e-01
  2.658993e-01
  3.032860e-01
  3.774003e-01
  5.083513e-01
  6.505755e-01
  7.456205e-01
  7.997325e-01
  8.329126e-01
  8.538219e-01
  8.608679e-01
  8.413442e-01
  7.504821e-01
  4.835392e-01
  1.674154e-01
  5.802102e-02
  2.996120e-02
  2.554956e-02
  4.015734e-02
  1.019662e-01
  2.856523e-01
  6.288189e-01
  8.630093e-01
  9.547145e-01
  9.860002e-01
  9.968004e-01
  9.999000e-01
  9.997419e-01
  9.740043e-01
  8.326301e-01
  3.507268e-01
  1.140537e-01
  9.124094e-02
  2.321347e-01
  7.039142e-01
  9.377888e-01
  9.700325e-01
  8.578761e-01
  4.115497e-01
  1.278161e-01
  7.389464e-02
  1.631289e-01
  5.868225e-01
  9.152939e-01
  9.891504e-01
  9.999000e-01
  9.985252e-01
  9.668448e-01
  7.974322e-01
  2.545598e-01
  6.038824e-02
  2.524596e-02
  2.998195e-02
  7.075889e-02
  6.883182e-02
  1.386956e-01
  2.017649e-01
  2.167836e-01
  1.848034e-01
  1.326079e-01
  1.135084e-01
  1.951774e-01
  4.223824e-01
  6.606983e-01
  7.707648e-01
  8.091391e-01
  8.283694e-01
  8.525266e-01
  8.875099e-01
  9.222029e-01
  9.460551e-01
  9.608660e-01
  9.709922e-01
  9.784644e-01
  9.827447e-01
  9.790607e-01
  9.443442e-01
  7.791903e-01
  3.137709e-01
  9.192544e-02
  3.704814e-02
  2.308191e-02
  2.139745e-02
  3.443518e-02
  8.776520e-02
  2.478326e-01
  5.707007e-01
  8.299114e-01
  9.416834e-01
  9.820605e-01
  9.966205e-01
  9.998071e-01
  9.779518e-01
  8.466311e-01
  3.706544e-01
  1.193086e-01
  8.720130e-02
  2.009216e-01
  6.126938e-01
  8.785830e-01
  9.172350e-01
  7.747270e-01
  3.329426e-01
  1.068851e-01
  6.632160e-02
  1.527932e-01
  5.646831e-01
  9.092065e-01
  9.870606e-01
  9.996727e-01
  9.975498e-01
  9.698341e-01
  8.189001e-01
  2.810113e-01
  6.229179e-02
  2.052894e-02
  1.876826e-02
  3.193010e-02
  2.665874e-02
  4.111991e-02
  5.341486e-02
  5.687779e-02
  5.397094e-02
  6.053917e-02
  1.316805e-01
  4.261305e-01
  7.879631e-01
  9.232921e-01
  9.603631e-01
  9.685888e-01
  9.697842e-01
  9.711745e-01
  9.748124e-01
  9.794781e-01
  9.836487e-01
  9.875196e-01
  9.917265e-01
  9.962268e-01
  9.999000e-01
  9.999000e-01
  9.819927e-01
  8.621395e-01
  3.981678e-01
  1.131611e-01
  4.229101e-02
  2.422069e-02
  1.804768e-02
  1.780609e-02
  2.900946e-02
  7.256938e-02
  2.006272e-01
  4.741043e-01
  7.609231e-01
  9.007929e-01
  9.537615e-01
  9.636448e-01
  9.239573e-01
  7.364957e-01
  2.812085e-01
  9.524282e-02
  6.577915e-02
  1.136142e-01
  3.011805e-01
  5.628258e-01
  6.236170e-01
  4.336878e-01
  1.701831e-01
  6.805488e-02
  5.174887e-02
  1.210668e-01
  4.611730e-01
  8.790016e-01
  9.804249e-01
  9.977728e-01
  9.958935e-01
  9.707900e-01
  8.371569e-01
  3.313141e-01
  7.094499e-02
  1.779859e-02
  1.204722e-02
  1.675705e-02
  1.476727e-02
  1.944340e-02
  2.316122e-02
  2.570725e-02
  3.085505e-02
  5.709924e-02
  1.896649e-01
  6.540607e-01
  9.238190e-01
  9.878727e-01
  9.987087e-01
  9.976664e-01
  9.935637e-01
  9.887487e-01
  9.842945e-01
  9.805858e-01
  9.779719e-01
  9.774065e-01
  9.796724e-01
  9.840570e-01
  9.880224e-01
  9.862008e-01
  9.585457e-01
  8.138939e-01
  3.481337e-01
  1.022622e-01
  4.116885e-02
  2.493959e-02
  1.848157e-02
  1.533099e-02
  1.582726e-02
  2.492620e-02
  5.698111e-02
  1.440301e-01
  3.269719e-01
  5.869167e-01
  7.444441e-01
  7.762655e-01
  6.849215e-01
  4.101961e-01
  1.473049e-01
  6.297815e-02
  4.751241e-02
  5.989605e-02
  1.053505e-01
  1.723516e-01
  1.912670e-01
  1.387440e-01
  7.386542e-02
  4.378782e-02
  4.019137e-02
  8.814541e-02
  3.354103e-01
  8.247052e-01
  9.677335e-01
  9.944383e-01
  9.945634e-01
  9.744057e-01
  8.709005e-01
  4.525809e-01
  1.029345e-01
  2.129150e-02
  8.910820e-03
  1.045892e-02
  1.099543e-02
  1.380216e-02
  1.642784e-02
  1.947499e-02
  2.685181e-02
  5.786893e-02
  2.051917e-01
  6.984801e-01
  9.421792e-01
  9.943306e-01
  9.999000e-01
  9.950060e-01
  9.846044e-01
  9.697134e-01
  9.527864e-01
  9.354470e-01
  9.192473e-01
  9.082102e-01
  9.060664e-01
  9.101170e-01
  9.103378e-01
  8.904476e-01
  8.136713e-01
  5.781042e-01
  2.078660e-01
  7.100848e-02
  3.587703e-02
  2.549084e-02
  2.127044e-02
  1.933954e-02
  1.875659e-02
  2.036445e-02
  2.759173e-02
  4.806010e-02
  9.358477e-02
  1.677737e-01
  2.324470e-01
  2.508761e-01
  2.102181e-01
  1.278763e-01
  6.483000e-02
  4.221811e-02
  3.750578e-02
  4.058852e-02
  5.078136e-02
  6.538928e-02
  7.204936e-02
  6.392330e-02
  4.950502e-02
  3.837268e-02
  3.548087e-02
  6.410882e-02
  2.296162e-01
  7.185800e-01
  9.378495e-01
  9.868211e-01
  9.928680e-01
  9.802520e-01
  9.157400e-01
  6.431205e-01
  1.896893e-01
  4.290251e-02
  1.256351e-02
  8.993113e-03
  1.276814e-02
  1.274941e-02
  1.428335e-02
  1.706293e-02
  2.368066e-02
  4.787784e-02
  1.556270e-01
  5.446322e-01
  8.630226e-01
  9.528289e-01
  9.656484e-01
  9.512700e-01
  9.137452e-01
  8.525283e-01
  7.845223e-01
  7.179193e-01
  6.548532e-01
  6.076167e-01
  5.889627e-01
  5.885280e-01
  5.710972e-01
  4.973117e-01
  3.593259e-01
  2.041108e-01
  8.824619e-02
  4.522439e-02
  3.242215e-02
  3.012685e-02
  3.424902e-02
  4.263586e-02
  5.029527e-02
  5.538618e-02
  5.954787e-02
  6.541208e-02
  7.483273e-02
  8.593593e-02
  8.979496e-02
  8.208491e-02
  6.708203e-02
  4.972378e-02
  3.778446e-02
  3.331306e-02
  3.278014e-02
  3.473297e-02
  4.051034e-02
  5.305817e-02
  7.101265e-02
  8.203936e-02
  7.755567e-02
  6.044962e-02
  4.351766e-02
  4.986248e-02
  1.402487e-01
  4.987427e-01
  8.547251e-01
  9.634138e-01
  9.868744e-01
  9.842961e-01
  9.519036e-01
  8.098830e-01
  4.013128e-01
  1.247619e-01
  3.984964e-02
  1.763599e-02
  3.087189e-02
  1.812037e-02
  1.452320e-02
  1.514348e-02
  1.932470e-02
  3.244765e-02
  8.084438e-02
  2.515136e-01
  5.627282e-01
  7.446445e-01
  7.811799e-01
  7.338011e-01
  5.989466e-01
  4.007297e-01
  2.604825e-01
  1.908152e-01
  1.560487e-01
  1.400100e-01
  1.378945e-01
  1.430683e-01
  1.437221e-01
  1.290452e-01
  9.960023e-02
  6.781294e-02
  4.494683e-02
  3.583912e-02
  3.709945e-02
  5.392447e-02
  9.739220e-02
  1.620013e-01
  2.146284e-01
  2.445290e-01
  2.585738e-01
  2.628103e-01
  2.557029e-01
  2.274775e-01
  1.691973e-01
  9.919433e-02
  5.496624e-02
  3.685371e-02
  3.108055e-02
  2.996293e-02
  3.090837e-02
  3.522709e-02
  5.106785e-02
  9.985792e-02
  1.893392e-01
  2.561077e-01
  2.537217e-01
  1.843981e-01
  9.539842e-02
  5.337190e-02
  7.785291e-02
  2.468833e-01
  6.434394e-01
  8.857928e-01
  9.626789e-01
  9.807375e-01
  9.728065e-01
  9.200343e-01
  7.326316e-01
  3.835122e-01
  1.592382e-01
  6.606231e-02
  1.150557e-01
  4.743998e-02
  2.218696e-02
  1.501027e-02
  1.543778e-02
  2.118845e-02
  3.730912e-02
  8.064872e-02
  1.601338e-01
  2.239698e-01
  2.373228e-01
  2.060377e-01
  1.492290e-01
  9.150868e-02
  5.585097e-02
  3.971521e-02
  3.459811e-02
  3.636441e-02
  4.200787e-02
  4.761978e-02
  4.966362e-02
  4.745752e-02
  4.293074e-02
  3.808111e-02
  3.512581e-02
  3.815656e-02
  6.066916e-02
  1.475491e-01
  3.522359e-01
  6.060808e-01
  7.456161e-01
  7.954556e-01
  8.105491e-01
  8.116708e-01
  7.970201e-01
  7.400742e-01
  5.772371e-01
  3.073629e-01
  1.185569e-01
  4.973743e-02
  3.235855e-02
  2.929883e-02
  3.124322e-02
  4.290261e-02
  9.541292e-02
  2.876591e-01
  6.071911e-01
  7.675095e-01
  7.679134e-01
  6.095841e-01
  2.903244e-01
  9.550088e-02
  5.391774e-02
  1.006753e-01
  2.962190e-01
  6.512561e-01
  8.701229e-01
  9.514238e-01
  9.740954e-01
  9.667632e-01
  9.171928e-01
  7.824669e-01
  5.316665e-01
  2.651062e-01
  4.062348e-01
  1.667718e-01
  5.959974e-02
  2.395074e-02
  1.507088e-02
  1.581635e-02
  2.141461e-02
  3.207023e-02
  4.725926e-02
  5.823746e-02
  5.848790e-02
  4.931812e-02
  3.583968e-02
  2.375389e-02
  1.739801e-02
  1.788634e-02
  2.684348e-02
  4.529160e-02
  6.443500e-02
  7.128091e-02
  6.155186e-02
  4.635176e-02
  3.811715e-02
  3.498727e-02
  3.603961e-02
  4.974020e-02
  1.197700e-01
  3.882854e-01
  7.544740e-01
  9.069742e-01
  9.535439e-01
  9.662795e-01
  9.694096e-01
  9.694414e-01
  9.657491e-01
  9.494760e-01
  8.889539e-01
  6.949490e-01
  3.000049e-01
  9.097989e-02
  3.989514e-02
  3.049833e-02
  3.337562e-02
  5.775196e-02
  1.786028e-01
  5.978942e-01
  8.829597e-01
  9.602322e-01
  9.609293e-01
  8.874447e-01
  6.109901e-01
  1.815032e-01
  5.748452e-02
  4.599222e-02
  9.877935e-02
  2.664638e-01
  5.857316e-01
  8.322485e-01
  9.382080e-01
  9.716378e-01
  9.719625e-01
  9.445121e-01
  8.706418e-01
  7.053988e-01
  7.924605e-01
  4.982735e-01
  2.006063e-01
  7.153537e-02
  3.101339e-02
  2.102194e-02
  2.095776e-02
  2.342872e-02
  2.560604e-02
  2.601196e-02
  2.402228e-02
  2.023536e-02
  1.612503e-02
  1.360671e-02
  1.555858e-02
  2.891539e-02
  7.145233e-02
  1.573793e-01
  2.366487e-01
  2.477092e-01
  1.771644e-01
  8.755083e-02
  4.966797e-02
  3.862649e-02
  3.976507e-02
  6.474084e-02
  1.954264e-01
  6.469782e-01
  9.160718e-01
  9.829267e-01
  9.957532e-01
  9.974440e-01
  9.974400e-01
  9.973320e-01
  9.969343e-01
  9.938786e-01
  9.753988e-01
  8.847657e-01
  5.490988e-01
  1.544182e-01
  5.157250e-02
  3.266557e-02
  3.558113e-02
  7.028830e-02
  2.442584e-01
  7.609310e-01
  9.590808e-01
  9.998190e-01
  9.999000e-01
  9.631060e-01
  7.754595e-01
  2.522309e-01
  6.785464e-02
  3.151634e-02
  3.632138e-02
  7.994196e-02
  2.116181e-01
  4.987353e-01
  7.934377e-01
  9.290537e-01
  9.732310e-01
  9.815218e-01
  9.692560e-01
  9.238295e-01
  9.397176e-01
  8.240859e-01
  5.554129e-01
  2.592289e-01
  1.217161e-01
  7.117923e-02
  5.379473e-02
  4.389843e-02
  3.357943e-02
  2.536433e-02
  2.012746e-02
  1.644954e-02
  1.399289e-02
  1.437750e-02
  2.441533e-02
  7.116659e-02
  2.377057e-01
  5.538002e-01
  7.487443e-01
  7.535162e-01
  5.495877e-01
  2.048284e-01
  7.570651e-02
  4.443364e-02
  4.213631e-02
  7.063793e-02
  2.233629e-01
  7.192089e-01
  9.461239e-01
  9.941060e-01
  9.999000e-01
  9.999000e-01
  9.999000e-01
  9.999000e-01
  9.999000e-01
  9.999000e-01
  9.931088e-01
  9.364901e-01
  6.740875e-01
  1.944142e-01
  5.925927e-02
  3.415687e-02
  3.615755e-02
  7.175841e-02
  2.507125e-01
  7.721888e-01
  9.626024e-01
  9.999000e-01
  9.999000e-01
  9.689383e-01
  7.948417e-01
  2.656601e-01
  7.066870e-02
  2.878608e-02
  2.138958e-02
  2.837371e-02
  6.240536e-02
  1.709552e-01
  4.376478e-01
  7.635129e-01
  9.188653e-01
  9.706164e-01
  9.836367e-01
  9.767520e-01
  9.631752e-01
  9.363072e-01
  8.546620e-01
  6.908048e-01
  4.710978e-01
  3.133730e-01
  2.321692e-01
  1.667444e-01
  9.582119e-02
  4.740803e-02
  2.645421e-02
  1.816054e-02
  1.490809e-02
  1.777584e-02
  4.338314e-02
  1.665689e-01
  5.595626e-01
  8.635240e-01
  9.544476e-01
  9.485187e-01
  8.055521e-01
  3.388974e-01
  1.036305e-01
  4.880004e-02
  4.120637e-02
  6.232682e-02
  1.814671e-01
  6.067527e-01
  8.976474e-01
  9.754751e-01
  9.926453e-01
  9.963798e-01
  9.975716e-01
  9.983775e-01
  9.990504e-01
  9.981769e-01
  9.859690e-01
  9.151407e-01
  6.212831e-01
  1.776432e-01
  5.679039e-02
  3.432398e-02
  3.544304e-02
  6.202474e-02
  1.952605e-01
  6.411502e-01
  9.028215e-01
  9.692906e-01
  9.724777e-01
  9.192666e-01
  6.866297e-01
  2.145886e-01
  6.230044e-02
  2.836964e-02
  1.964703e-02
  1.782593e-02
  2.404214e-02
  5.270020e-02
  1.469685e-01
  3.860182e-01
  7.106818e-01
  8.799255e-01
  9.439699e-01
  9.638513e-01
  8.888327e-01
  9.202972e-01
  9.272018e-01
  9.071302e-01
  8.635757e-01
  8.165367e-01
  7.557646e-01
  6.133722e-01
  3.445088e-01
  1.292913e-01
  4.705041e-02
  2.312112e-02
  1.664824e-02
  2.320059e-02
  7.554383e-02
  3.145897e-01
  7.870755e-01
  9.584163e-01
  9.959125e-01
  9.830674e-01
  8.614035e-01
  3.841531e-01
  1.107680e-01
  4.814887e-02
  3.777449e-02
  4.709229e-02
  1.044276e-01
  3.289953e-01
  6.975408e-01
  8.779192e-01
  9.417483e-01
  9.630288e-01
  9.706766e-01
  9.738708e-01
  9.739967e-01
  9.661543e-01
  9.282650e-01
  7.829673e-01
  3.972562e-01
  1.176375e-01
  4.806934e-02
  3.661401e-02
  3.891991e-02
  5.288862e-02
  1.149358e-01
  3.414152e-01
  6.665875e-01
  8.064295e-01
  8.163509e-01
  7.043623e-01
  3.923139e-01
  1.283278e-01
  5.122978e-02
  3.100291e-02
  2.297686e-02
  1.847741e-02
  1.725560e-02
  2.279255e-02
  4.666104e-02
  1.188330e-01
  2.864897e-01
  5.478424e-01
  7.414511e-01
  8.345083e-01
  5.453703e-01
  7.185541e-01
  8.463974e-01
  9.248273e-01
  9.553338e-01
  9.627153e-01
  9.551377e-01
  9.082732e-01
  7.334716e-01
  3.200104e-01
  9.082902e-02
  3.184126e-02
  1.928023e-02
  3.242291e-02
  1.288241e-01
  5.192507e-01
  8.877145e-01
  9.820307e-01
  9.969167e-01
  9.707967e-01
  8.187506e-01
  3.225711e-01
  9.290982e-02
  4.310604e-02
  3.458845e-02
  3.663638e-02
  5.385696e-02
  1.201915e-01
  2.852902e-01
  5.274330e-01
  7.087499e-01
  7.876430e-01
  8.183362e-01
  8.298613e-01
  8.271780e-01
  7.961078e-01
  6.868431e-01
  4.258909e-01
  1.696959e-01
  6.744518e-02
  4.830600e-02
  5.746267e-02
  7.064729e-02
  7.749913e-02
  8.697029e-02
  1.323494e-01
  2.247907e-01
  2.966717e-01
  3.055440e-01
  2.444826e-01
  1.463060e-01
  8.452649e-02
  6.419565e-02
  5.146902e-02
  3.718856e-02
  2.575778e-02
  1.954561e-02
  1.804323e-02
  2.232216e-02
  3.818568e-02
  7.713399e-02
  1.486874e-01
  2.415054e-01
  3.665556e-01
  1.394271e-01
  2.551235e-01
  5.124942e-01
  8.030095e-01
  9.402994e-01
  9.848286e-01
  9.968008e-01
  9.842010e-01
  8.931972e-01
  5.267273e-01
  1.413757e-01
  4.107343e-02
  2.309781e-02
  4.889764e-02
  2.086383e-01
  7.000118e-01
  9.346777e-01
  9.851475e-01
  9.823048e-01
  9.202891e-01
  6.690638e-01
  2.133149e-01
  6.688959e-02
  3.869192e-02
  3.469666e-02
  3.431907e-02
  3.657470e-02
  4.879117e-02
  8.251455e-02
  1.408366e-01
  2.027131e-01
  2.486013e-01
  2.785104e-01
  2.943977e-01
  2.927899e-01
  2.657662e-01
  2.068956e-01
  1.258308e-01
  6.769527e-02
  5.491988e-02
  8.770748e-02
  1.667820e-01
  2.353862e-01
  2.432624e-01
  1.885064e-01
  1.173187e-01
  9.017104e-02
  9.074803e-02
  9.286402e-02
  9.316112e-02
  1.094930e-01
  1.520833e-01
  1.811538e-01
  1.591739e-01
  1.010533e-01
  5.250802e-02
  2.887032e-02
  2.067384e-02
  1.893391e-02
  2.107264e-02
  2.778952e-02
  4.017632e-02
  5.762307e-02
  8.532489e-02
  3.237931e-02
  6.500994e-02
  1.805412e-01
  4.963649e-01
  8.333960e-01
  9.596475e-01
  9.947587e-01
  9.911332e-01
  9.130952e-01
  5.681501e-01
  1.524550e-01
  4.379511e-02
  3.034482e-02
  8.559836e-02
  3.471802e-01
  8.125618e-01
  9.560638e-01
  9.779345e-01
  9.448940e-01
  7.888242e-01
  3.863535e-01
  1.140347e-01
  4.993310e-02
  4.355167e-02
  4.542447e-02
  4.319727e-02
  3.774740e-02
  3.433963e-02
  3.632723e-02
  4.399000e-02
  5.413341e-02
  6.329105e-02
  7.050717e-02
  7.520457e-02
  7.596238e-02
  7.105473e-02
  6.020901e-02
  4.765948e-02
  4.649792e-02
  8.488917e-02
  2.452091e-01
  5.564793e-01
  7.420992e-01
  7.516918e-01
  5.911932e-01
  2.793964e-01
  1.002413e-01
  5.515491e-02
  5.545360e-02
  9.680588e-02
  2.449723e-01
  4.863905e-01
  6.253693e-01
  5.717458e-01
  3.569307e-01
  1.525930e-01
  5.619222e-02
  2.826466e-02
  2.127191e-02
  1.978890e-02
  1.996086e-02
  2.065429e-02
  2.137941e-02
  2.350395e-02
  1.494278e-02
  2.136417e-02
  5.903328e-02
  2.027451e-01
  5.611574e-01
  8.417836e-01
  9.379503e-01
  9.372193e-01
  8.127263e-01
  4.095290e-01
  1.128673e-01
  4.102293e-02
  5.154860e-02
  1.776416e-01
  5.831894e-01
  8.922643e-01
  9.657257e-01
  9.579795e-01
  8.569963e-01
  5.251525e-01
  1.740918e-01
  6.540428e-02
  6.080676e-02
  8.560919e-02
  1.007917e-01
  8.867572e-02
  6.087262e-02
  4.014375e-02
  3.100635e-02
  2.814275e-02
  2.835769e-02
  3.024574e-02
  3.299722e-02
  3.544658e-02
  3.629862e-02
  3.521461e-02
  3.338509e-02
  3.457154e-02
  5.318709e-02
  1.530701e-01
  5.278725e-01
  8.582890e-01
  9.538969e-01
  9.567435e-01
  8.735566e-01
  5.699739e-01
  1.697267e-01
  6.312885e-02
  6.476323e-02
  1.747086e-01
  5.608400e-01
  8.451318e-01
  9.240530e-01
  9.053077e-01
  7.707989e-01
  4.168626e-01
  1.227378e-01
  4.315469e-02
  2.634296e-02
  2.342452e-02
  2.344575e-02
  2.309456e-02
  2.077032e-02
  1.705213e-02
  2.151597e-02
  1.670562e-02
  2.540998e-02
  7.038045e-02
  2.118991e-01
  4.778796e-01
  6.810822e-01
  6.861421e-01
  4.787384e-01
  1.888516e-01
  6.600108e-02
  4.926001e-02
  1.191932e-01
  3.856242e-01
  7.919139e-01
  9.423555e-01
  9.658003e-01
  9.153915e-01
  6.823908e-01
  2.547810e-01
  8.233334e-02
  6.928984e-02
  1.496917e-01
  2.777851e-01
  3.411910e-01
  2.839681e-01
  1.551067e-01
  6.728395e-02
  3.725980e-02
  2.877074e-02
  2.789112e-02
  3.155166e-02
  3.831215e-02
  4.423222e-02
  4.474613e-02
  3.989479e-02
  3.461536e-02
  3.586658e-02
  6.283337e-02
  2.068730e-01
  6.971389e-01
  9.444270e-01
  9.990980e-01
  9.999000e-01
  9.515749e-01
  7.270936e-01
  2.244661e-01
  7.505191e-02
  8.112918e-02