# vtk DataFile Version 2.0
time_10.vtk
ASCII
DATASET STRUCTURED_GRID
DIMENSIONS    64    64     1
POINTS    4096 float
  0.000000e+00   0.000000e+00   0.000000e+00
  0.000000e+00   1.000000e+00   0.000000e+00
  0.000000e+00   2.000000e+00   0.000000e+00
  0.000000e+00   3.000000e+00   0.000000e+00
  0.000000e+00   4.000000e+00   0.000000e+00
  0.000000e+00   5.000000e+00   0.000000e+00
  0.000000e+00   6.000000e+00   0.000000e+00
  0.000000e+00   7.000000e+00   0.000000e+00
  0.000000e+00   8.000000e+00   0.000000e+00
  0.000000e+00   9.000000e+00   0.000000e+00
  0.000000e+00   1.000000e+01   0.000000e+00
  0.000000e+00   1.100000e+01   0.000000e+00
  0.000000e+00   1.200000e+01   0.000000e+00
  0.000000e+00   1.300000e+01   0.000000e+00
  0.000000e+00   1.400000e+01   0.000000e+00
  0.000000e+00   1.500000e+01   0.000000e+00
  0.000000e+00   1.600000e+01   0.000000e+00
  0.000000e+00   1.700000e+01   0.000000e+00
  0.000000e+00   1.800000e+01   0.000000e+00
  0.000000e+00   1.900000e+01   0.000000e+00
  0.000000e+00   2.000000e+01   0.000000e+00
  0.000000e+00   2.100000e+01   0.000000e+00
  0.000000e+00   2.200000e+01   0.000000e+00
  0.000000e+00   2.300000e+01   0.000000e+00
  0.000000e+00   2.400000e+01   0.000000e+00
  0.000000e+00   2.500000e+01   0.000000e+00
  0.000000e+00   2.600000e+01   0.000000e+00
  0.000000e+00   2.700000e+01   0.000000e+00
  0.000000e+00   2.800000e+01   0.000000e+00
  0.000000e+00   2.900000e+01   0.000000e+00
  0.000000e+00   3.000000e+01   0.000000e+00
  0.000000e+00   3.100000e+01   0.000000e+00
  0.000000e+00   3.200000e+01   0.000000e+00
  0.000000e+00   3.300000e+01   0.000000e+00
  0.000000e+00   3.400000e+01   0.000000e+00
  0.000000e+00   3.500000e+01   0.000000e+00
  0.000000e+00   3.600000e+01   0.000000e+00
  0.000000e+00   3.700000e+01   0.000000e+00
  0.000000e+00   3.800000e+01   0.000000e+00
  0.000000e+00   3.900000e+01   0.000000e+00
  0.000000e+00   4.000000e+01   0.000000e+00
  0.000000e+00   4.100000e+01   0.000000e+00
  0.000000e+00   4.200000e+01   0.000000e+00
  0.000000e+00   4.300000e+01   0.000000e+00
  0.000000e+00   4.400000e+01   0.000000e+00
  0.000000e+00   4.500000e+01   0.000000e+00
  0.000000e+00   4.600000e+01   0.000000e+00
  0.000000e+00   4.700000e+01   0.000000e+00
  0.000000e+00   4.800000e+01   0.000000e+00
  0.000000e+00   4.900000e+01   0.000000e+00
  0.000000e+00   5.000000e+01   0.000000e+00
  0.000000e+00   5.100000e+01   0.000000e+00
  0.000000e+00   5.200000e+01   0.000000e+00
  0.000000e+00   5.300000e+01   0.000000e+00
  0.000000e+00   5.400000e+01   0.000000e+00
  0.000000e+00   5.500000e+01   0.000000e+00
  0.000000e+00   5.600000e+01   0.000000e+00
  0.000000e+00   5.700000e+01   0.000000e+00
  0.000000e+00   5.800000e+01   0.000000e+00
  0.000000e+00   5.900000e+01   0.000000e+00
  0.000000e+00   6.000000e+01   0.000000e+00
  0.000000e+00   6.100000e+01   0.000000e+00
  0.000000e+00   6.200000e+01   0.000000e+00
  0.000000e+00   6.300000e+01   0.000000e+00
  1.000000e+00   0.000000e+00   0.000000e+00
  1.000000e+00   1.000000e+00   0.000000e+00
  1.000000e+00   2.000000e+00   0.000000e+00
  1.000000e+00   3.000000e+00   0.000000e+00
  1.000000e+00   4.000000e+00   0.000000e+00
  1.000000e+00   5.000000e+00   0.000000e+00
  1.000000e+00   6.000000e+00   0.000000e+00
  1.000000e+00   7.000000e+00   0.000000e+00
  1.000000e+00   8.000000e+00   0.000000e+00
  1.000000e+00   9.000000e+00   0.000000e+00
  1.000000e+00   1.000000e+01   0.000000e+00
  1.000000e+00   1.100000e+01   0.000000e+00
  1.000000e+00   1.200000e+01   0.000000e+00
  1.000000e+00   1.300000e+01   0.000000e+00
  1.000000e+00   1.400000e+01   0.000000e+00
  1.000000e+00   1.500000e+01   0.000000e+00
  1.000000e+00   1.600000e+01   0.000000e+00
  1.000000e+00   1.700000e+01   0.000000e+00
  1.000000e+00   1.800000e+01   0.000000e+00
  1.000000e+00   1.900000e+01   0.000000e+00
  1.000000e+00   2.000000e+01   0.000000e+00
  1.000000e+00   2.100000e+01   0.000000e+00
  1.000000e+00   2.200000e+01   0.000000e+00
  1.000000e+00   2.300000e+01   0.000000e+00
  1.000000e+00   2.400000e+01   0.000000e+00
  1.000000e+00   2.500000e+01   0.000000e+00
  1.000000e+00   2.600000e+01   0.000000e+00
  1.000000e+00   2.700000e+01   0.000000e+00
  1.000000e+00   2.800000e+01   0.000000e+00
  1.000000e+00   2.900000e+01   0.000000e+00
  1.000000e+00   3.000000e+01   0.000000e+00
  1.000000e+00   3.100000e+01   0.000000e+00
  1.000000e+00   3.200000e+01   0.000000e+00
  1.000000e+00   3.300000e+01   0.000000e+00
  1.000000e+00   3.400000e+01   0.000000e+00
  1.000000e+00   3.500000e+01   0.000000e+00
  1.000000e+00   3.600000e+01   0.000000e+00
  1.000000e+00   3.700000e+01   0.000000e+00
  1.000000e+00   3.800000e+01   0.000000e+00
  1.000000e+00   3.900000e+01   0.000000e+00
  1.000000e+00   4.000000e+01   0.000000e+00
  1.000000e+00   4.100000e+01   0.000000e+00
  1.000000e+00   4.200000e+01   0.000000e+00
  1.000000e+00   4.300000e+01   0.000000e+00
  1.000000e+00   4.400000e+01   0.000000e+00
  1.000000e+00   4.500000e+01   0.000000e+00
  1.000000e+00   4.600000e+01   0.000000e+00
  1.000000e+00   4.700000e+01   0.000000e+00
  1.000000e+00   4.800000e+01   0.000000e+00
  1.000000e+00   4.900000e+01   0.000000e+00
  1.000000e+00   5.000000e+01   0.000000e+00
  1.000000e+00   5.100000e+01   0.000000e+00
  1.000000e+00   5.200000e+01   0.000000e+00
  1.000000e+00   5.300000e+01   0.000000e+00
  1.000000e+00   5.400000e+01   0.000000e+00
  1.000000e+00   5.500000e+01   0.000000e+00
  1.000000e+00   5.600000e+01   0.000000e+00
  1.000000e+00   5.700000e+01   0.000000e+00
  1.000000e+00   5.800000e+01   0.000000e+00
  1.000000e+00   5.900000e+01   0.000000e+00
  1.000000e+00   6.000000e+01   0.000000e+00
  1.000000e+00   6.100000e+01   0.000000e+00
  1.000000e+00   6.200000e+01   0.000000e+00
  1.000000e+00   6.300000e+01   0.000000e+00
  2.000000e+00   0.000000e+00   0.000000e+00
  2.000000e+00   1.000000e+00   0.000000e+00
  2.000000e+00   2.000000e+00   0.000000e+00
  2.000000e+00   3.000000e+00   0.000000e+00
  2.000000e+00   4.000000e+00   0.000000e+00
  2.000000e+00   5.000000e+00   0.000000e+00
  2.000000e+00   6.000000e+00   0.000000e+00
  2.000000e+00   7.000000e+00   0.000000e+00
  2.000000e+00   8.000000e+00   0.000000e+00
  2.000000e+00   9.000000e+00   0.000000e+00
  2.000000e+00   1.000000e+01   0.000000e+00
  2.000000e+00   1.100000e+01   0.000000e+00
  2.000000e+00   1.200000e+01   0.000000e+00
  2.000000e+00   1.300000e+01   0.000000e+00
  2.000000e+00   1.400000e+01   0.000000e+00
  2.000000e+00   1.500000e+01   0.000000e+00
  2.000000e+00   1.600000e+01   0.000000e+00
  2.000000e+00   1.700000e+01   0.000000e+00
  2.000000e+00   1.800000e+01   0.000000e+00
  2.000000e+00   1.900000e+01   0.000000e+00
  2.000000e+00   2.000000e+01   0.000000e+00
  2.000000e+00   2.100000e+01   0.000000e+00
  2.000000e+00   2.200000e+01   0.000000e+00
  2.000000e+00   2.300000e+01   0.000000e+00
  2.000000e+00   2.400000e+01   0.000000e+00
  2.000000e+00   2.500000e+01   0.000000e+00
  2.000000e+00   2.600000e+01   0.000000e+00
  2.000000e+00   2.700000e+01   0.000000e+00
  2.000000e+00   2.800000e+01   0.000000e+00
  2.000000e+00   2.900000e+01   0.000000e+00
  2.000000e+00   3.000000e+01   0.000000e+00
  2.000000e+00   3.100000e+01   0.000000e+00
  2.000000e+00   3.200000e+01   0.000000e+00
  2.000000e+00   3.300000e+01   0.000000e+00
  2.000000e+00   3.400000e+01   0.000000e+00
  2.000000e+00   3.500000e+01   0.000000e+00
  2.000000e+00   3.600000e+01   0.000000e+00
  2.000000e+00   3.700000e+01   0.000000e+00
  2.000000e+00   3.800000e+01   0.000000e+00
  2.000000e+00   3.900000e+01   0.000000e+00
  2.000000e+00   4.000000e+01   0.000000e+00
  2.000000e+00   4.100000e+01   0.000000e+00
  2.000000e+00   4.200000e+01   0.000000e+00
  2.000000e+00   4.300000e+01   0.000000e+00
  2.000000e+00   4.400000e+01   0.000000e+00
  2.000000e+00   4.500000e+01   0.000000e+00
  2.000000e+00   4.600000e+01   0.000000e+00
  2.000000e+00   4.700000e+01   0.000000e+00
  2.000000e+00   4.800000e+01   0.000000e+00
  2.000000e+00   4.900000e+01   0.000000e+00
  2.000000e+00   5.000000e+01   0.000000e+00
  2.000000e+00   5.100000e+01   0.000000e+00
  2.000000e+00   5.200000e+01   0.000000e+00
  2.000000e+00   5.300000e+01   0.000000e+00
  2.000000e+00   5.400000e+01   0.000000e+00
  2.000000e+00   5.500000e+01   0.000000e+00
  2.000000e+00   5.600000e+01   0.000000e+00
  2.000000e+00   5.700000e+01   0.000000e+00
  2.000000e+00   5.800000e+01   0.000000e+00
  2.000000e+00   5.900000e+01   0.000000e+00
  2.000000e+00   6.000000e+01   0.000000e+00
  2.000000e+00   6.100000e+01   0.000000e+00
  2.000000e+00   6.200000e+01   0.000000e+00
  2.000000e+00   6.300000e+01   0.000000e+00
  3.000000e+00   0.000000e+00   0.000000e+00
  3.000000e+00   1.000000e+00   0.000000e+00
  3.000000e+00   2.000000e+00   0.000000e+00
  3.000000e+00   3.000000e+00   0.000000e+00
  3.000000e+00   4.000000e+00   0.000000e+00
  3.000000e+00   5.000000e+00   0.000000e+00
  3.000000e+00   6.000000e+00   0.000000e+00
  3.000000e+00   7.000000e+00   0.000000e+00
  3.000000e+00   8.000000e+00   0.000000e+00
  3.000000e+00   9.000000e+00   0.000000e+00
  3.000000e+00   1.000000e+01   0.000000e+00
  3.000000e+00   1.100000e+01   0.000000e+00
  3.000000e+00   1.200000e+01   0.000000e+00
  3.000000e+00   1.300000e+01   0.000000e+00
  3.000000e+00   1.400000e+01   0.000000e+00
  3.000000e+00   1.500000e+01   0.000000e+00
  3.000000e+00   1.600000e+01   0.000000e+00
  3.000000e+00   1.700000e+01   0.000000e+00
  3.000000e+00   1.800000e+01   0.000000e+00
  3.000000e+00   1.900000e+01   0.000000e+00
  3.000000e+00   2.000000e+01   0.000000e+00
  3.000000e+00   2.100000e+01   0.000000e+00
  3.000000e+00   2.200000e+01   0.000000e+00
  3.000000e+00   2.300000e+01   0.000000e+00
  3.000000e+00   2.400000e+01   0.000000e+00
  3.000000e+00   2.500000e+01   0.000000e+00
  3.000000e+00   2.600000e+01   0.000000e+00
[...]
POINT_DATA  4096
SCALARS CON float 1
LOOKUP_TABLE default
  1.815579e-01
  6.542165e-01
  9.301084e-01
  9.924501e-01
  9.999000e-01
  9.997284e-01
  9.634326e-01
  7.738408e-01
  2.462616e-01
  6.786962e-02
  3.279115e-02
  2.763129e-02
  2.790342e-02
  2.900677e-02
  3.016096e-02
  3.116189e-02
  3.177902e-02
  3.173157e-02
  3.076257e-02
  2.869895e-02
  2.556904e-02
  2.192482e-02
  1.888706e-02
  1.733706e-02
  2.056907e-02
  4.469762e-02
  1.529187e-01
  4.807459e-01
  8.254339e-01
  9.518919e-01
  9.861185e-01
  9.944429e-01
  9.956949e-01
  9.937701e-01
  9.862985e-01
  9.626253e-01
  8.922103e-01
  7.013768e-01
  3.455588e-01
  1.125466e-01
  4.149381e-02
  2.653078e-02
  2.590779e-02
  2.870485e-02
  3.135965e-02
  3.252207e-02
  3.188502e-02
  2.982724e-02
  2.725043e-02
  2.571532e-02
  2.789004e-02
  4.004228e-02
  7.827452e-02
  1.527156e-01
  2.209176e-01
  2.387686e-01
  1.997136e-01
  1.248945e-01
  6.212055e-02
  3.137208e-02
  2.092260e-02
  1.917519e-02
  2.396009e-02
  5.026161e-02
  1.200119e-01
  4.422578e-01
  8.249714e-01
  9.509370e-01
  9.787474e-01
  9.742792e-01
  9.145280e-01
  6.676734e-01
  2.068937e-01
  7.081606e-02
  5.307394e-02
  6.120199e-02
  7.172660e-02
  8.029355e-02
  8.689614e-02
  9.164031e-02
  9.380472e-02
  9.210420e-02
  8.536634e-02
  7.307178e-02
  5.591970e-02
  3.772556e-02
  2.558822e-02
  1.971415e-02
  1.787123e-02
  2.376647e-02
  5.899628e-02
  1.978779e-01
  5.486398e-01
  8.465195e-01
  9.551068e-01
  9.864424e-01
  9.950530e-01
  9.972058e-01
  9.967018e-01
  9.922020e-01
  9.749638e-01
  9.115110e-01
  6.967282e-01
  2.732836e-01
  7.882131e-02
  3.359984e-02
  2.506535e-02
  2.398879e-02
  2.412476e-02
  2.418406e-02
  2.397823e-02
  2.365205e-02
  2.367008e-02
  2.558444e-02
  3.568101e-02
  7.978910e-02
  2.382291e-01
  5.316265e-01
  7.277719e-01
  7.677636e-01
  6.861232e-01
  4.524577e-01
  2.003362e-01
  7.030611e-02
  2.880880e-02
  1.916582e-02
  2.081558e-02
  3.786420e-02
  6.069879e-02
  1.960153e-01
  5.133633e-01
  7.586982e-01
  8.379221e-01
  8.269733e-01
  7.025766e-01
  3.836979e-01
  1.390841e-01
  1.008287e-01
  1.546644e-01
  2.289834e-01
  2.867743e-01
  3.271608e-01
  3.558679e-01
  3.750914e-01
  3.824356e-01
  3.728695e-01
  3.413831e-01
  2.843036e-01
  2.005623e-01
  1.059089e-01
  4.803752e-02
  2.681707e-02
  1.948720e-02
  1.796504e-02
  2.634918e-02
  6.926618e-02
  2.222869e-01
  5.703170e-01
  8.482786e-01
  9.535842e-01
  9.861444e-01
  9.960924e-01
  9.992682e-01
  9.997117e-01
  9.962903e-01
  9.757459e-01
  8.726107e-01
  4.968851e-01
  1.354233e-01
  4.509792e-02
  2.746753e-02
  2.418650e-02
  2.353198e-02
  2.329507e-02
  2.310841e-02
  2.305298e-02
  2.374755e-02
  2.820657e-02
  5.146589e-02
  1.630369e-01
  5.509904e-01
  8.538808e-01
  9.465429e-01
  9.609440e-01
  9.335136e-01
  8.265880e-01
  5.397061e-01
  1.885030e-01
  5.437377e-02
  2.224529e-02
  1.783322e-02
  2.543289e-02
  2.925499e-02
  6.635789e-02
  1.529868e-01
  2.581245e-01
  3.242792e-01
  3.184425e-01
  2.422845e-01
  1.432364e-01
  1.179615e-01
  2.459332e-01
  5.252519e-01
  7.347379e-01
  8.158269e-01
  8.445546e-01
  8.570621e-01
  8.638558e-01
  8.666801e-01
  8.638800e-01
  8.496212e-01
  8.033458e-01
  6.595861e-01
  3.496848e-01
  1.155455e-01
  4.327646e-02
  2.415726e-02
  1.811451e-02
  1.744155e-02
  2.740341e-02
  7.279879e-02
  2.239597e-01
  5.569413e-01
  8.346419e-01
  9.471478e-01
  9.843457e-01
  9.963560e-01
  9.999000e-01
  9.999000e-01
  9.916577e-01
  9.265025e-01
  6.298971e-01
  1.757447e-01
  5.375393e-02
  2.982281e-02
  2.520085e-02
  2.416216e-02
  2.377272e-02
  2.350497e-02
  2.341810e-02
  2.438948e-02
  3.117948e-02
  6.865183e-02
  2.502086e-01
  7.596372e-01
  9.526969e-01
  9.934206e-01
  9.977020e-01
  9.898770e-01
  9.536738e-01
  8.151804e-01
  4.248810e-01
  1.157176e-01
  3.240637e-02
  1.649781e-02
  1.746177e-02
  1.681748e-02
  2.698073e-02
  4.634616e-02
  7.003744e-02
  8.668701e-02
  8.783644e-02
  7.669854e-02
  7.783387e-02
  1.686151e-01
  5.334577e-01
  8.444844e-01
  9.449880e-01
  9.708138e-01
  9.773564e-01
  9.794419e-01
  9.805901e-01
  9.814174e-01
  9.815968e-01
  9.794768e-01
  9.676986e-01
  9.111587e-01
  6.916046e-01
  2.376270e-01
  7.031013e-02
  3.087992e-02
  2.033629e-02
  1.640428e-02
  1.655046e-02
  2.685109e-02
  6.981951e-02
  2.063781e-01
  5.104255e-01
  8.010075e-01
  9.310231e-01
  9.769855e-01
  9.927745e-01
  9.963139e-01
  9.840937e-01
  9.059517e-01
  5.841274e-01
  1.638276e-01
  5.268033e-02
  3.048523e-02
  2.603431e-02
  2.496205e-02
  2.451957e-02
  2.417105e-02
  2.396418e-02
  2.494370e-02
  3.303753e-02
  7.950959e-02
  3.025415e-01
  8.283268e-01
  9.751817e-01
  9.999000e-01
  9.999000e-01
  9.990625e-01
  9.867971e-01
  9.284037e-01
  6.953148e-01
  2.336694e-01
  5.629958e-02
  1.820885e-02
  1.316318e-02
  1.128794e-02
  1.515341e-02
  2.108768e-02
  2.769270e-02
  3.289151e-02
  3.565107e-02
  4.003054e-02
  6.920900e-02
  2.258716e-01
  7.253341e-01
  9.435454e-01
  9.913765e-01
  9.986666e-01
  9.992372e-01
  9.991294e-01
  9.991781e-01
  9.994336e-01
  9.997967e-01
  9.999000e-01
  9.986733e-01
  9.744693e-01
  8.343663e-01
  3.415850e-01
  9.471474e-02
  3.677206e-02
  2.268511e-02
  1.754779e-02
  1.505890e-02
  1.572204e-02
  2.524584e-02
  6.189073e-02
  1.726304e-01
  4.236999e-01
  7.273407e-01
  8.825858e-01
  9.426546e-01
  9.546415e-01
  9.205449e-01
  7.682915e-01
  3.708211e-01
  1.093061e-01
  4.345811e-02
  2.954377e-02
  2.654586e-02
  2.577437e-02
  2.542994e-02
  2.508944e-02
  2.475342e-02
  2.545162e-02
  3.333877e-02
  8.093051e-02
  3.110470e-01
  8.371984e-01
  9.769123e-01
  9.996168e-01
  9.999000e-01
  9.999000e-01
  9.952282e-01
  9.689446e-01
  8.463645e-01
  4.321670e-01
  1.076464e-01
  2.604987e-02
  1.136298e-02
  8.386247e-03
  1.009394e-02
  1.338813e-02
  1.694426e-02
  2.017901e-02
  2.340110e-02
  3.077607e-02
  6.534174e-02
  2.358731e-01
  7.584733e-01
  9.580686e-01
  9.971750e-01
  9.999000e-01
  9.999000e-01
  9.999000e-01
  9.999000e-01
  9.999000e-01
  9.999000e-01
  9.999000e-01
  9.999000e-01
  9.810419e-01
  8.538590e-01
  3.639458e-01
  1.003436e-01
  3.858458e-02
  2.404853e-02
  1.894844e-02
  1.609419e-02
  1.458816e-02
  1.568205e-02
  2.383917e-02
  5.155020e-02
  1.274965e-01
  2.916594e-01
  5.383276e-01
  7.102749e-01
  7.479378e-01
  6.564419e-01
  4.016982e-01
  1.577438e-01
  6.012153e-02
  3.437016e-02
  2.833166e-02
  2.697852e-02
  2.675606e-02
  2.682815e-02
  2.683378e-02
  2.650855e-02
  2.659623e-02
  3.267559e-02
  7.384884e-02
  2.802273e-01
  8.091704e-01
  9.685278e-01
  9.972811e-01
  9.999000e-01
  9.999000e-01
  9.976004e-01
  9.850010e-01
  9.245783e-01
  6.729749e-01
  2.112349e-01
  4.800613e-02
  1.324803e-02
  8.682116e-03
  7.363137e-03
  9.563683e-03
  1.251401e-02
  1.550439e-02
  1.882220e-02
  2.567832e-02
  5.382906e-02
  1.894381e-01
  6.555959e-01
  9.208615e-01
  9.856099e-01
  9.973233e-01
  9.988305e-01
  9.986773e-01
  9.983968e-01
  9.982451e-01
  9.981301e-01
  9.972490e-01
  9.911049e-01
  9.541193e-01
  7.810179e-01
  2.919014e-01
  8.347409e-02
  3.561709e-02
  2.419162e-02
  2.012561e-02
  1.789696e-02
  1.681517e-02
  1.737099e-02
  2.053637e-02
  2.853735e-02
  4.768383e-02
  8.882963e-02
  1.566649e-01
  2.182170e-01
  2.335103e-01
  1.933145e-01
  1.186051e-01
  6.077601e-02
  3.669332e-02
  2.945554e-02
  2.772219e-02
  2.769042e-02
  2.852606e-02
  3.021730e-02
  3.215957e-02
  3.261664e-02
  3.126401e-02
  3.320863e-02
  6.185844e-02
  2.199511e-01
  7.205196e-01
  9.418112e-01
  9.905044e-01
  9.989006e-01
  9.997352e-01
  9.982795e-01
  9.917722e-01
  9.624280e-01
  8.301401e-01
  4.100866e-01
  1.068697e-01
  2.519480e-02
  1.916664e-02
  8.453932e-03
  7.923634e-03
  1.004852e-02
  1.283424e-02
  1.598094e-02
  2.112741e-02
  3.775397e-02
  1.108769e-01
  3.902961e-01
  7.693772e-01
  9.208400e-01
  9.633919e-01
  9.739492e-01
  9.760659e-01
  9.759955e-01
  9.751147e-01
  9.727265e-01
  9.647026e-01
  9.357143e-01
  8.345444e-01
  5.440071e-01
  1.731773e-01
  5.713105e-02
  3.047516e-02
  2.372084e-02
  2.135883e-02
  2.096106e-02
  2.366839e-02
  3.183392e-02
  4.529622e-02
  5.939048e-02
  7.272826e-02
  8.653032e-02
  9.932690e-02
  1.020844e-01
  8.857967e-02
  6.675723e-02
  4.670933e-02
  3.418060e-02
  2.901703e-02
  2.763143e-02
  2.784279e-02
  2.933352e-02
  3.340531e-02
  4.254268e-02
  5.506503e-02
  6.052585e-02
  5.335100e-02
  4.247975e-02
  5.108347e-02
  1.434271e-01
  5.133028e-01
  8.639416e-01
  9.686544e-01
  9.929132e-01
  9.978940e-01
  9.979098e-01
  9.946299e-01
  9.810657e-01
  9.215470e-01
  6.887036e-01
  2.599272e-01
  6.949603e-02
  6.850396e-02
  2.449225e-02
  1.283112e-02
  1.093172e-02
  1.212887e-02
  1.445354e-02
  1.788124e-02
  2.568320e-02
  5.296736e-02
  1.511590e-01
  3.881155e-01
  6.590317e-01
  7.852964e-01
  8.266141e-01
  8.384181e-01
  8.400560e-01
  8.363343e-01
  8.247028e-01
  7.912155e-01
  6.938745e-01
  4.668070e-01
  2.122202e-01
  7.664136e-02
  3.645204e-02
  2.624282e-02
  2.351634e-02
  2.363526e-02
  2.879094e-02
  4.840952e-02
  9.782012e-02
  1.741327e-01
  2.402998e-01
  2.827337e-01
  3.005324e-01
  2.875421e-01
  2.341812e-01
  1.475187e-01
  7.424064e-02
  4.071337e-02
  2.994882e-02
  2.731816e-02
  2.731707e-02
  2.880942e-02
  3.370792e-02
  4.983073e-02
  9.462625e-02
  1.632665e-01
  1.954593e-01
  1.593496e-01
  9.091995e-02
  5.474883e-02
  8.158406e-02
  2.594024e-01
  6.634766e-01
  8.970467e-01
  9.702220e-01
  9.904266e-01
  9.954326e-01
  9.951264e-01
  9.894767e-01
  9.658897e-01
  8.704313e-01
  5.735875e-01
  2.157655e-01
  2.551942e-01
  1.045248e-01
  4.745633e-02
  2.623816e-02
  1.846751e-02
  1.642982e-02
  1.715797e-02
  2.014691e-02
  2.837688e-02
  5.244745e-02
  1.087007e-01
  1.890320e-01
  2.528780e-01
  2.901636e-01
  3.070137e-01
  3.105207e-01
  3.043219e-01
  2.875742e-01
  2.552881e-01
  2.010257e-01
  1.277946e-01
  6.697664e-02
  3.687012e-02
  2.691965e-02
  2.420221e-02
  2.427153e-02
  2.900054e-02
  5.174248e-02
  1.382488e-01
  3.547145e-01
  6.286646e-01
  7.714195e-01
  8.208690e-01
  8.314147e-01
  8.101263e-01
  7.183251e-01
  4.753536e-01
  1.953561e-01
  6.833833e-02
  3.496953e-02
  2.810351e-02
  2.781484e-02
  3.104803e-02
  4.466609e-02
  1.008198e-01
  2.891339e-01
  5.607268e-01
  6.661916e-01
  5.516368e-01
  2.779499e-01
  9.706033e-02
  5.682638e-02
  1.074086e-01
  3.169178e-01
  6.783646e-01
  8.851264e-01
  9.601157e-01
  9.847333e-01
  9.919395e-01
  9.919101e-01
  9.840825e-01
  9.526691e-01
  8.430658e-01
  5.693102e-01
  6.825166e-01
  4.046732e-01
  2.108722e-01
  1.091163e-01
  5.712433e-02
  3.240102e-02
  2.232576e-02
  1.986611e-02
  2.115797e-02
  2.602928e-02
  3.630547e-02
  5.059483e-02
  6.270250e-02
  7.017461e-02
  7.374328e-02
  7.481118e-02
  7.410421e-02
  7.123366e-02
  6.501235e-02
  5.459635e-02
  4.150919e-02
  3.098377e-02
  2.563951e-02
  2.384251e-02
  2.377652e-02
  2.626095e-02
  3.991821e-02
  1.061325e-01
  3.646493e-01
  7.475996e-01
  9.111395e-01
  9.599421e-01
  9.732168e-01
  9.755764e-01
  9.694150e-01
  9.381540e-01
  8.158797e-01
  4.646074e-01
  1.348268e-01
  4.753439e-02
  3.042679e-02
  2.880799e-02
  3.452442e-02
  6.369487e-02
  1.995719e-01
  6.311437e-01
  8.829089e-01
  9.374705e-01
  8.790433e-01
  6.179905e-01
  1.896614e-01
  6.114156e-02
  4.937401e-02
  1.075767e-01
  2.894853e-01
  6.133650e-01
  8.397394e-01
  9.386310e-01
  9.752682e-01
  9.873277e-01
  9.888886e-01
  9.811196e-01
  9.518885e-01
  8.676287e-01
  9.199536e-01
  8.295602e-01
  6.763388e-01
  4.373261e-01
  2.319858e-01
  1.074115e-01
  4.732336e-02
  2.650291e-02
  2.106519e-02
  2.030859e-02
  2.121746e-02
  2.280472e-02
  2.418210e-02
  2.519520e-02
  2.628751e-02
  2.795911e-02
  3.018415e-02
  3.198444e-02
  3.197114e-02
  2.984547e-02
  2.686260e-02
  2.459557e-02
  2.352185e-02
  2.331478e-02
  2.410628e-02
  2.886159e-02
  5.431830e-02
  1.821727e-01
  6.342037e-01
  9.129074e-01
  9.830838e-01
  9.966845e-01
  9.990786e-01
  9.994613e-01
  9.984324e-01
  9.894725e-01
  9.356987e-01
  7.009536e-01
  2.120592e-01
  6.231087e-02
  3.314036e-02
  2.979706e-02
  3.741107e-02
  7.948352e-02
  2.776113e-01
  7.947653e-01
  9.684389e-01
  9.978890e-01
  9.672733e-01
  7.876052e-01
  2.653501e-01
  7.232853e-02
  3.377828e-02
  3.941059e-02
  8.627749e-02
  2.179078e-01
  4.818717e-01
  7.582535e-01
  9.018104e-01
  9.600242e-01
  9.812624e-01
  9.867602e-01
  9.824934e-01
  9.644863e-01
  9.804654e-01
  9.633318e-01
  9.272264e-01
  8.481900e-01
  6.809129e-01
  3.732734e-01
  1.371570e-01
  4.901542e-02
  2.600910e-02
  2.023602e-02
  1.838785e-02
  1.752945e-02
  1.727169e-02
  1.815179e-02
  2.135892e-02
  2.819367e-02
  3.826977e-02
  4.699099e-02
  4.787759e-02
  4.066455e-02
  3.201314e-02
  2.661747e-02
  2.432746e-02
  2.367725e-02
  2.448705e-02
  3.039951e-02
  6.279959e-02
  2.256357e-01
  7.440271e-01
  9.546077e-01
  9.965256e-01
  9.999000e-01
  9.999000e-01
  9.999000e-01
  9.999000e-01
  9.978260e-01
  9.624046e-01
  7.756769e-01
  2.483248e-01
  6.973593e-02
  3.465928e-02
  3.036560e-02
  3.808751e-02
  8.168581e-02
  2.870371e-01
  8.081768e-01
  9.734048e-01
  9.999000e-01
  9.724398e-01
  8.014964e-01
  2.749912e-01
  7.408401e-02
  3.041411e-02
  2.282074e-02
  2.989235e-02
  6.044902e-02
  1.449409e-01
  3.357171e-01
  6.378804e-01
  8.421236e-01
  9.368691e-01
  9.736388e-01
  9.857746e-01
  9.870267e-01
  9.921843e-01
  9.926897e-01
  9.878782e-01
  9.717732e-01
  9.204568e-01
  7.503456e-01
  3.543074e-01
  1.014590e-01
  3.690972e-02
  2.228822e-02
  1.816327e-02
  1.662908e-02
  1.710354e-02
  2.194721e-02
  3.677184e-02
  6.882307e-02
  1.174417e-01
  1.583417e-01
  1.562557e-01
  1.114350e-01
  6.333881e-02
  3.683626e-02
  2.728109e-02
  2.444531e-02
  2.451539e-02
  2.975883e-02
  5.949471e-02
  2.094485e-01
  7.073291e-01
  9.415992e-01
  9.926313e-01
  9.999000e-01
  9.999000e-01
  9.999000e-01
  9.999000e-01
  9.931479e-01
  9.468573e-01
  7.313005e-01
  2.258404e-01
  6.554458e-02
  3.447091e-02
  3.090183e-02
  3.724210e-02
  7.039454e-02
  2.253288e-01
  6.903007e-01
  9.148330e-01
  9.585610e-01
  9.102594e-01
  6.743145e-01
  2.124587e-01
  6.249884e-02
  2.880247e-02
  2.023270e-02
  1.829126e-02
  2.245849e-02
  4.023928e-02
  9.187762e-02
  2.221813e-01
  4.809102e-01
  7.592156e-01
  9.062293e-01
  9.647465e-01
  9.855415e-01
  9.850432e-01
  9.961434e-01
  9.999000e-01
  9.990310e-01
  9.850917e-01
  9.101324e-01
  6.115569e-01
  1.724771e-01
  5.086342e-02
  2.493428e-02
  1.853203e-02
  1.737100e-02
  2.237426e-02
  4.453347e-02
  1.108675e-01
  2.519265e-01
  4.489308e-01
  5.928527e-01
  5.767361e-01
  3.961300e-01
  1.844091e-01
  6.907638e-02
  3.447205e-02
  2.573113e-02
  2.413077e-02
  2.722173e-02
  4.653645e-02
  1.430897e-01
  5.081835e-01
  8.511865e-01
  9.584528e-01
  9.856107e-01
  9.921245e-01
  9.921214e-01
  9.858227e-01
  9.602749e-01
  8.609781e-01
  5.376138e-01
  1.558392e-01
  5.289330e-02
  3.409720e-02
  3.409200e-02
  4.051602e-02
  5.942028e-02
  1.339704e-01
  3.836202e-01
  6.733349e-01
  7.570091e-01
  6.549582e-01
  3.515897e-01
  1.154802e-01
  4.578471e-02
  2.795215e-02
  2.172111e-02
  1.814635e-02
  1.626596e-02
  1.771706e-02
  2.741853e-02
  5.870273e-02
  1.445193e-01
  3.462045e-01
  6.664528e-01
  8.698729e-01
  9.543286e-01
  9.388159e-01
  9.807526e-01
  9.958356e-01
  9.999000e-01
  9.952013e-01
  9.435077e-01
  6.978843e-01
  2.042679e-01
  5.754126e-02
  2.625242e-02
  1.928551e-02
  2.169231e-02
  4.395761e-02
  1.304347e-01
  3.668851e-01
  6.936056e-01
  8.604074e-01
  9.188601e-01
  9.101116e-01
  8.033478e-01
  4.846753e-01
  1.453695e-01
  4.873844e-02
  2.772343e-02
  2.348574e-02
  2.419087e-02
  3.271389e-02
  7.321221e-02
  2.320755e-01
  5.720744e-01
  8.077264e-01
  9.029370e-01
  9.360420e-01
  9.365808e-01
  9.053640e-01
  8.152060e-01
  5.918999e-01
  2.508075e-01
  8.241416e-02
  4.145895e-02
  3.878826e-02
  5.142205e-02
  7.052326e-02
  8.586324e-02
  1.035520e-01
  1.529078e-01
  2.262095e-01
  2.524218e-01
  2.054834e-01
  1.165871e-01
  5.850984e-02
  3.906976e-02
  3.279600e-02
  2.825731e-02
  2.313710e-02
  1.855011e-02
  1.560426e-02
  1.518293e-02
  2.017237e-02
  3.957022e-02
  9.897095e-02
  2.593442e-01
  5.707154e-01
  8.249739e-01
  7.545643e-01
  8.999759e-01
  9.563185e-01
  9.734868e-01
  9.645871e-01
  8.869120e-01
  5.855959e-01
  1.684295e-01
  5.118538e-02
  2.543986e-02
  2.169167e-02
  3.675222e-02
  1.126781e-01
  3.642960e-01
  7.407935e-01
  9.184072e-01
  9.748255e-01
  9.908604e-01
  9.879216e-01
  9.421124e-01
  7.336276e-01
  2.351399e-01
  6.513815e-02
  2.954823e-02
  2.260538e-02
  2.174260e-02
  2.429248e-02
  3.622497e-02
  7.884136e-02
  1.876885e-01
  3.615576e-01
  5.597978e-01
  6.716032e-01
  6.744277e-01
  5.693619e-01
  3.749872e-01
  1.996055e-01
  8.804344e-02
  4.550478e-02
  4.069962e-02
  6.301301e-02
  1.311759e-01
  2.226251e-01
  2.641020e-01
  2.311003e-01
  1.530220e-01
  1.024951e-01
  8.435566e-02
  6.961060e-02
  5.455095e-02
  5.068950e-02
  5.841483e-02
  6.377943e-02
  5.742975e-02
  4.194572e-02
  2.775377e-02
  1.966123e-02
  1.560603e-02
  1.416247e-02
  1.668570e-02
  2.972392e-02
  7.325145e-02
  1.966684e-01
  4.623483e-01
  3.229896e-01
  5.899727e-01
  7.588003e-01
  8.147749e-01
  7.909647e-01
  6.349821e-01
  2.997770e-01
  9.463733e-02
  3.747257e-02
  2.407699e-02
  2.945769e-02
  7.918877e-02
  2.842959e-01
  6.999655e-01
  9.167602e-01
  9.803841e-01
  9.968102e-01
  9.999000e-01
  9.999000e-01
  9.733620e-01
  8.193149e-01
  2.891328e-01
  7.478076e-02
  2.985299e-02
  2.136073e-02
  1.987773e-02
  2.026959e-02
  2.301930e-02
  3.208620e-02
  5.431989e-02
  9.296784e-02
  1.426639e-01
  1.773773e-01
  1.788891e-01
  1.468619e-01
  9.859733e-02
  6.066531e-02
  4.005863e-02
  3.649923e-02
  5.470765e-02
  1.391898e-01
  4.115920e-01
  6.971694e-01
  7.752021e-01
  6.803173e-01
  3.803842e-01
  1.323634e-01
  6.094770e-02
  4.688540e-02
  5.566426e-02
  9.785943e-02
  1.726268e-01
  2.186391e-01
  1.975739e-01
  1.244605e-01
  5.954464e-02
  3.051369e-02
  2.008227e-02
  1.590119e-02
  1.427232e-02
  1.573560e-02
  2.502656e-02
  5.593768e-02
  1.403601e-01
  8.595153e-02
  1.617362e-01
  2.373561e-01
  2.799410e-01
  2.677346e-01
  1.959361e-01
  9.978160e-02
  4.601289e-02
  2.748134e-02
  2.532352e-02
  4.958865e-02
  1.774228e-01
  5.761959e-01
  8.832111e-01
  9.738673e-01
  9.955095e-01
  9.999000e-01
  9.999000e-01
  9.998132e-01
  9.763113e-01
  8.320728e-01
  2.974624e-01
  7.449011e-02
  2.819497e-02
  1.973348e-02
  1.829786e-02
  1.822111e-02
  1.875715e-02
  2.046066e-02
  2.444855e-02
  3.134574e-02
  4.019088e-02
  4.678282e-02
  4.769032e-02
  4.285964e-02
  3.569495e-02
  3.078897e-02
  3.029408e-02
  3.850070e-02
  7.872576e-02
  2.568214e-01
  7.296525e-01
  9.292601e-01
  9.645025e-01
  9.140698e-01
  6.764365e-01
  2.171923e-01
  7.346310e-02
  5.477225e-02
  1.020100e-01
  2.896180e-01
  5.849556e-01
  7.232880e-01
  6.748769e-01
  4.326891e-01
  1.671534e-01
  5.806906e-02
  2.821609e-02
  1.980009e-02
  1.664758e-02
  1.543196e-02
  1.652399e-02
  2.290501e-02
  4.188751e-02
  3.145667e-02
  4.628596e-02
  6.247553e-02
  7.297979e-02
  7.190876e-02
  5.834128e-02
  3.992504e-02
  2.790485e-02
  2.352044e-02
  3.158075e-02
  9.108318e-02
  3.543830e-01
  7.975320e-01
  9.553752e-01
  9.917528e-01
  9.990937e-01
  9.999000e-01
  9.999000e-01
  9.975482e-01
  9.690531e-01
  8.080698e-01
  2.688353e-01
  6.592235e-02
  2.501180e-02
  1.786907e-02
  1.685872e-02
  1.691150e-02
  1.722375e-02
  1.787040e-02
  1.915918e-02
  2.128482e-02
  2.399609e-02
  2.635920e-02
  2.742023e-02
  2.711424e-02
  2.644289e-02
  2.678704e-02
  2.979602e-02
  4.164202e-02
  9.458789e-02
  3.265184e-01
  8.319525e-01
  9.795211e-01
  9.999000e-01
  9.655135e-01
  7.778870e-01
  2.638445e-01
  8.537981e-02
  7.322973e-02