# vtk DataFile Version 2.0
time_10.vtk
ASCII
DATASET STRUCTURED_GRID
DIMENSIONS    64    64     1
POINTS    4096 float
  0.000000e+00   0.000000e+00   0.000000e+00
  0.000000e+00   1.000000e+00   0.000000e+00
  0.000000e+00   2.000000e+00   0.000000e+00
  0.000000e+00   3.000000e+00   0.000000e+00
  0.000000e+00   4.000000e+00   0.000000e+00
  0.000000e+00   5.000000e+00   0.000000e+00
  0.000000e+00   6.000000e+00   0.000000e+00
  0.000000e+00   7.000000e+00   0.000000e+00
  0.000000e+00   8.000000e+00   0.000000e+00
  0.000000e+00   9.000000e+00   0.000000e+00
  0.000000e+00   1.000000e+01   0.000000e+00
  0.000000e+00   1.100000e+01   0.000000e+00
  0.000000e+00   1.200000e+01   0.000000e+00
  0.000000e+00   1.300000e+01   0.000000e+00
  0.000000e+00   1.400000e+01   0.000000e+00
  0.000000e+00   1.500000e+01   0.000000e+00
  0.000000e+00   1.600000e+01   0.000000e+00
  0.000000e+00   1.700000e+01   0.000000e+00
  0.000000e+00   1.800000e+01   0.000000e+00
  0.000000e+00   1.900000e+01   0.000000e+00
  0.000000e+00   2.000000e+01   0.000000e+00
  0.000000e+00   2.100000e+01   0.000000e+00
  0.000000e+00   2.200000e+01   0.000000e+00
  0.000000e+00   2.300000e+01   0.000000e+00
  0.000000e+00   2.400000e+01   0.000000e+00
  0.000000e+00   2.500000e+01   0.000000e+00
  0.000000e+00   2.600000e+01   0.000000e+00
  0.000000e+00   2.700000e+01   0.000000e+00
  0.000000e+00   2.800000e+01   0.000000e+00
  0.000000e+00   2.900000e+01   0.000000e+00
  0.000000e+00   3.000000e+01   0.000000e+00
  0.000000e+00   3.100000e+01   0.000000e+00
  0.000000e+00   3.200000e+01   0.000000e+00
  0.000000e+00   3.300000e+01   0.000000e+00
  0.000000e+00   3.400000e+01   0.000000e+00
  0.000000e+00   3.500000e+01   0.000000e+00
  0.000000e+00   3.600000e+01   0.000000e+00
  0.000000e+00   3.700000e+01   0.000000e+00
  0.000000e+00   3.800000e+01   0.000000e+00
  0.000000e+00   3.900000e+01   0.000000e+00
  0.000000e+00   4.000000e+01   0.000000e+00
  0.000000e+00   4.100000e+01   0.000000e+00
  0.000000e+00   4.200000e+01   0.000000e+00
  0.000000e+00   4.300000e+01   0.000000e+00
  0.000000e+00   4.400000e+01   0.000000e+00
  0.000000e+00   4.500000e+01   0.000000e+00
  0.000000e+00   4.600000e+01   0.000000e+00
  0.000000e+00   4.700000e+01   0.000000e+00
  0.000000e+00   4.800000e+01   0.000000e+00
  0.000000e+00   4.900000e+01   0.000000e+00
  0.000000e+00   5.000000e+01   0.000000e+00
  0.000000e+00   5.100000e+01   0.000000e+00
  0.000000e+00   5.200000e+01   0.000000e+00
  0.000000e+00   5.300000e+01   0.000000e+00
  0.000000e+00   5.400000e+01   0.000000e+00
  0.000000e+00   5.500000e+01   0.000000e+00
  0.000000e+00   5.600000e+01   0.000000e+00
  0.000000e+00   5.700000e+01   0.000000e+00
  0.000000e+00   5.800000e+01   0.000000e+00
  0.000000e+00   5.900000e+01   0.000000e+00
  0.000000e+00   6.000000e+01   0.000000e+00
  0.000000e+00   6.100000e+01   0.000000e+00
  0.000000e+00   6.200000e+01   0.000000e+00
  0.000000e+00   6.300000e+01   0.000000e+00
  1.000000e+00   0.000000e+00   0.000000e+00
  1.000000e+00   1.000000e+00   0.000000e+00
  1.000000e+00   2.000000e+00   0.000000e+00
  1.000000e+00   3.000000e+00   0.000000e+00
  1.000000e+00   4.000000e+00   0.000000e+00
  1.000000e+00   5.000000e+00   0.000000e+00
  1.000000e+00   6.000000e+00   0.000000e+00
  1.000000e+00   7.000000e+00   0.000000e+00
  1.000000e+00   8.000000e+00   0.000000e+00
  1.000000e+00   9.000000e+00   0.000000e+00
  1.000000e+00   1.000000e+01   0.000000e+00
  1.000000e+00   1.100000e+01   0.000000e+00
  1.000000e+00   1.200000e+01   0.000000e+00
  1.000000e+00   1.300000e+01   0.000000e+00
  1.000000e+00   1.400000e+01   0.000000e+00
  1.000000e+00   1.500000e+01   0.000000e+00
  1.000000e+00   1.600000e+01   0.000000e+00
  1.000000e+00   1.700000e+01   0.000000e+00
  1.000000e+00   1.800000e+01   0.000000e+00
  1.000000e+00   1.900000e+01   0.000000e+00
  1.000000e+00   2.000000e+01   0.000000e+00
  1.000000e+00   2.100000e+01   0.000000e+00
  1.000000e+00   2.200000e+01   0.000000e+00
  1.000000e+00   2.300000e+01   0.000000e+00
  1.000000e+00   2.400000e+01   0.000000e+00
  1.000000e+00   2.500000e+01   0.000000e+00
  1.000000e+00   2.600000e+01   0.000000e+00
  1.000000e+00   2.700000e+01   0.000000e+00
  1.000000e+00   2.800000e+01   0.000000e+00
  1.000000e+00   2.900000e+01   0.000000e+00
  1.000000e+00   3.000000e+01   0.000000e+00
  1.000000e+00   3.100000e+01   0.000000e+00
  1.000000e+00   3.200000e+01   0.000000e+00
  1.000000e+00   3.300000e+01   0.000000e+00
  1.000000e+00   3.400000e+01   0.000000e+00
  1.000000e+00   3.500000e+01   0.000000e+00
  1.000000e+00   3.600000e+01   0.000000e+00
  1.000000e+00   3.700000e+01   0.000000e+00
  1.000000e+00   3.800000e+01   0.000000e+00
  1.000000e+00   3.900000e+01   0.000000e+00
  1.000000e+00   4.000000e+01   0.000000e+00
  1.000000e+00   4.100000e+01   0.000000e+00
  1.000000e+00   4.200000e+01   0.000000e+00
  1.000000e+00   4.300000e+01   0.000000e+00
  1.000000e+00   4.400000e+01   0.000000e+00
  1.000000e+00   4.500000e+01   0.000000e+00
  1.000000e+00   4.600000e+01   0.000000e+00
  1.000000e+00   4.700000e+01   0.000000e+00
  1.000000e+00   4.800000e+01   0.000000e+00
  1.000000e+00   4.900000e+01   0.000000e+00
  1.000000e+00   5.000000e+01   0.000000e+00
  1.000000e+00   5.100000e+01   0.000000e+00
  1.000000e+00   5.200000e+01   0.000000e+00
  1.000000e+00   5.300000e+01   0.000000e+00
  1.000000e+00   5.400000e+01   0.000000e+00
  1.000000e+00   5.500000e+01   0.000000e+00
  1.000000e+00   5.600000e+01   0.000000e+00
  1.000000e+00   5.700000e+01   0.000000e+00
  1.000000e+00   5.800000e+01   0.000000e+00
  1.000000e+00   5.900000e+01   0.000000e+00
  1.000000e+00   6.000000e+01   0.000000e+00
  1.000000e+00   6.100000e+01   0.000000e+00
  1.000000e+00   6.200000e+01   0.000000e+00
  1.000000e+00   6.300000e+01   0.000000e+00
  2.000000e+00   0.000000e+00   0.000000e+00
  2.000000e+00   1.000000e+00   0.000000e+00
  2.000000e+00   2.000000e+00   0.000000e+00
  2.000000e+00   3.000000e+00   0.000000e+00
  2.000000e+00   4.000000e+00   0.000000e+00
  2.000000e+00   5.000000e+00   0.000000e+00
  2.000000e+00   6.000000e+00   0.000000e+00
  2.000000e+00   7.000000e+00   0.000000e+00
  2.000000e+00   8.000000e+00   0.000000e+00
  2.000000e+00   9.000000e+00   0.000000e+00
  2.000000e+00   1.000000e+01   0.000000e+00
  2.000000e+00   1.100000e+01   0.000000e+00
  2.000000e+00   1.200000e+01   0.000000e+00
  2.000000e+00   1.300000e+01   0.000000e+00
  2.000000e+00   1.400000e+01   0.000000e+00
  2.000000e+00   1.500000e+01   0.000000e+00
  2.000000e+00   1.600000e+01   0.000000e+00
  2.000000e+00   1.700000e+01   0.000000e+00
  2.000000e+00   1.800000e+01   0.000000e+00
  2.000000e+00   1.900000e+01   0.000000e+00
  2.000000e+00   2.000000e+01   0.000000e+00
  2.000000e+00   2.100000e+01   0.000000e+00
  2.000000e+00   2.200000e+01   0.000000e+00
  2.000000e+00   2.300000e+01   0.000000e+00
  2.000000e+00   2.400000e+01   0.000000e+00
  2.000000e+00   2.500000e+01   0.000000e+00
  2.000000e+00   2.600000e+01   0.000000e+00
  2.000000e+00   2.700000e+01   0.000000e+00
  2.000000e+00   2.800000e+01   0.000000e+00
  2.000000e+00   2.900000e+01   0.000000e+00
  2.000000e+00   3.000000e+01   0.000000e+00
  2.000000e+00   3.100000e+01   0.000000e+00
  2.000000e+00   3.200000e+01   0.000000e+00
  2.000000e+00   3.300000e+01   0.000000e+00
  2.000000e+00   3.400000e+01   0.000000e+00
  2.000000e+00   3.500000e+01   0.000000e+00
  2.000000e+00   3.600000e+01   0.000000e+00
  2.000000e+00   3.700000e+01   0.000000e+00
  2.000000e+00   3.800000e+01   0.000000e+00
  2.000000e+00   3.900000e+01   0.000000e+00
  2.000000e+00   4.000000e+01   0.000000e+00
  2.000000e+00   4.100000e+01   0.000000e+00
  2.000000e+00   4.200000e+01   0.000000e+00
  2.000000e+00   4.300000e+01   0.000000e+00
  2.000000e+00   4.400000e+01   0.000000e+00
  2.000000e+00   4.500000e+01   0.000000e+00
  2.000000e+00   4.600000e+01   0.000000e+00
  2.000000e+00   4.700000e+01   0.000000e+00
  2.000000e+00   4.800000e+01   0.000000e+00
  2.000000e+00   4.900000e+01   0.000000e+00
  2.000000e+00   5.000000e+01   0.000000e+00
  2.000000e+00   5.100000e+01   0.000000e+00
  2.000000e+00   5.200000e+01   0.000000e+00
  2.000000e+00   5.300000e+01   0.000000e+00
  2.000000e+00   5.400000e+01   0.000000e+00
  2.000000e+00   5.500000e+01   0.000000e+00
  2.000000e+00   5.600000e+01   0.000000e+00
  2.000000e+00   5.700000e+01   0.000000e+00
  2.000000e+00   5.800000e+01   0.000000e+00
  2.000000e+00   5.900000e+01   0.000000e+00
  2.000000e+00   6.000000e+01   0.000000e+00
  2.000000e+00   6.100000e+01   0.000000e+00
  2.000000e+00   6.200000e+01   0.000000e+00
  2.000000e+00   6.300000e+01   0.000000e+00
  3.000000e+00   0.000000e+00   0.000000e+00
  3.000000e+00   1.000000e+00   0.000000e+00
  3.000000e+00   2.000000e+00   0.000000e+00
  3.000000e+00   3.000000e+00   0.000000e+00
  3.000000e+00   4.000000e+00   0.000000e+00
  3.000000e+00   5.000000e+00   0.000000e+00
  3.000000e+00   6.000000e+00   0.000000e+00
  3.000000e+00   7.000000e+00   0.000000e+00
  3.000000e+00   8.000000e+00   0.000000e+00
  3.000000e+00   9.000000e+00   0.000000e+00
  3.000000e+00   1.000000e+01   0.000000e+00
  3.000000e+00   1.100000e+01   0.000000e+00
  3.000000e+00   1.200000e+01   0.000000e+00
  3.000000e+00   1.300000e+01   0.000000e+00
  3.000000e+00   1.400000e+01   0.000000e+00
  3.000000e+00   1.500000e+01   0.000000e+00
  3.000000e+00   1.600000e+01   0.000000e+00
  3.000000e+00   1.700000e+01   0.000000e+00
  3.000000e+00   1.800000e+01   0.000000e+00
  3.000000e+00   1.900000e+01   0.000000e+00
  3.000000e+00   2.000000e+01   0.000000e+00
  3.000000e+00   2.100000e+01   0.000000e+00
  3.000000e+00   2.200000e+01   0.000000e+00
  3.000000e+00   2.300000e+01   0.000000e+00
  3.000000e+00   2.400000e+01   0.000000e+00
  3.000000e+00   2.500000e+01   0.000000e+00
  3.000000e+00   2.600000e+01   0.000000e+00
[...]
POINT_DATA  4096
SCALARS CON float 1
LOOKUP_TABLE default
  1.899909e-01
  4.194934e-01
  7.849256e-01
  9.073587e-01
  9.277583e-01
  9.092845e-01
  8.673649e-01
  8.114073e-01
  7.229011e-01
  5.376913e-01
  2.756356e-01
  1.106296e-01
  5.863648e-02
  4.633416e-02
  4.950972e-02
  6.564095e-02
  8.434316e-02
  9.051506e-02
  7.916549e-02
  5.743763e-02
  3.743877e-02
  2.867004e-02
  2.915695e-02
  3.522883e-02
  4.839597e-02
  8.089884e-02
  1.569268e-01
  3.231093e-01
  6.128624e-01
  8.316896e-01
  9.158788e-01
  9.354151e-01
  9.202789e-01
  8.616224e-01
  7.252322e-01
  4.618754e-01
  2.196474e-01
  1.045709e-01
  6.784065e-02
  5.623051e-02
  4.658822e-02
  3.899822e-02
  4.521415e-02
  9.347388e-02
  2.583729e-01
  5.053208e-01
  6.220655e-01
  5.239018e-01
  2.750020e-01
  1.036152e-01
  5.599154e-02
  6.565091e-02
  1.827451e-01
  6.203701e-01
  9.008628e-01
  9.654256e-01
  9.377663e-01
  7.450867e-01
  2.518814e-01
  8.076199e-02
  5.268015e-02
  6.467843e-02
  9.208194e-02
  1.235973e-01
  4.050295e-01
  4.363616e-01
  5.660800e-01
  6.555794e-01
  6.592050e-01
  5.758201e-01
  4.303693e-01
  3.032798e-01
  2.183770e-01
  1.470932e-01
  8.471542e-02
  4.986712e-02
  3.814282e-02
  3.644751e-02
  3.995150e-02
  4.724682e-02
  5.417481e-02
  5.458892e-02
  4.720591e-02
  3.738659e-02
  3.180572e-02
  3.464239e-02
  4.545489e-02
  5.855258e-02
  6.661093e-02
  6.736208e-02
  7.312667e-02
  1.210989e-01
  2.890288e-01
  6.301199e-01
  8.620774e-01
  9.464439e-01
  9.693993e-01
  9.637573e-01
  9.270165e-01
  8.223942e-01
  5.905429e-01
  2.915803e-01
  1.275748e-01
  6.205501e-02
  3.862167e-02
  3.589312e-02
  6.239476e-02
  1.945434e-01
  6.099437e-01
  8.666523e-01
  9.266134e-01
  8.687847e-01
  6.049293e-01
  1.871169e-01
  6.512899e-02
  6.647139e-02
  2.149616e-01
  7.308429e-01
  9.469911e-01
  9.883819e-01
  9.659978e-01
  8.062779e-01
  2.815838e-01
  8.884540e-02
  7.642662e-02
  1.526810e-01
  2.819809e-01
  3.745600e-01
  7.510107e-01
  4.717088e-01
  2.577595e-01
  1.993411e-01
  1.769967e-01
  1.458537e-01
  1.076498e-01
  7.903336e-02
  6.235851e-02
  5.109546e-02
  4.308750e-02
  4.079912e-02
  4.513189e-02
  5.585734e-02
  7.398089e-02
  9.950228e-02
  1.232680e-01
  1.281470e-01
  1.115451e-01
  9.167900e-02
  8.831344e-02
  1.129080e-01
  1.631151e-01
  2.116750e-01
  2.244622e-01
  1.805040e-01
  1.056710e-01
  7.253941e-02
  1.119711e-01
  2.787722e-01
  5.977923e-01
  8.255390e-01
  9.257549e-01
  9.621681e-01
  9.683564e-01
  9.468219e-01
  8.746894e-01
  7.019158e-01
  4.135726e-01
  1.962361e-01
  8.856417e-02
  5.450689e-02
  8.787476e-02
  2.938226e-01
  7.990342e-01
  9.673479e-01
  9.959251e-01
  9.622827e-01
  7.717910e-01
  2.520051e-01
  7.472698e-02
  6.527601e-02
  2.151204e-01
  7.421584e-01
  9.487858e-01
  9.853887e-01
  9.603563e-01
  7.960333e-01
  2.665789e-01
  9.420838e-02
  1.383911e-01
  4.178894e-01
  7.361196e-01
  8.250426e-01
  8.689820e-01
  4.833219e-01
  1.533293e-01
  6.929099e-02
  5.194635e-02
  4.856970e-02
  5.278100e-02
  6.337093e-02
  7.449152e-02
  8.409083e-02
  9.526244e-02
  1.150100e-01
  1.495379e-01
  2.006452e-01
  2.727000e-01
  3.689783e-01
  4.584818e-01
  4.823264e-01
  4.331479e-01
  3.724971e-01
  3.716863e-01
  4.681965e-01
  6.258360e-01
  7.319096e-01
  7.409583e-01
  6.042682e-01
  2.991855e-01
  1.050428e-01
  6.164094e-02
  9.352071e-02
  2.118007e-01
  4.437822e-01
  7.091704e-01
  8.630547e-01
  9.376362e-01
  9.645282e-01
  9.600529e-01
  9.197493e-01
  8.134118e-01
  5.911155e-01
  2.843068e-01
  1.168379e-01
  1.161758e-01
  3.373628e-01
  8.343371e-01
  9.789848e-01
  9.999000e-01
  9.656342e-01
  7.754967e-01
  2.508035e-01
  7.167997e-02
  5.756409e-02
  1.861847e-01
  6.833901e-01
  9.300842e-01
  9.751280e-01
  9.451026e-01
  7.585507e-01
  2.325958e-01
  9.529507e-02
  2.056694e-01
  6.691927e-01
  9.213650e-01
  9.605856e-01
  8.604176e-01
  4.230427e-01
  1.187405e-01
  4.713650e-02
  3.954453e-02
  6.155449e-02
  1.240883e-01
  2.108027e-01
  2.814772e-01
  3.347797e-01
  3.901508e-01
  4.730335e-01
  5.874701e-01
  6.984519e-01
  7.818045e-01
  8.403516e-01
  8.750597e-01
  8.807425e-01
  8.602252e-01
  8.323784e-01
  8.269438e-01
  8.596078e-01
  9.103850e-01
  9.462551e-01
  9.504460e-01
  8.811534e-01
  5.947491e-01
  1.803650e-01
  6.095514e-02
  4.235556e-02
  6.205424e-02
  1.248671e-01
  2.626899e-01
  5.178181e-01
  7.747699e-01
  9.130696e-01
  9.649474e-01
  9.751401e-01
  9.561306e-01
  8.792577e-01
  6.417762e-01
  2.486171e-01
  1.428229e-01
  2.951325e-01
  7.476934e-01
  9.298840e-01
  9.582056e-01
  8.944166e-01
  6.251343e-01
  1.852313e-01
  5.629236e-02
  4.519527e-02
  1.386451e-01
  5.481089e-01
  8.912434e-01
  9.614359e-01
  9.287852e-01
  7.169093e-01
  2.002563e-01
  8.519185e-02
  2.094347e-01
  6.976094e-01
  9.389110e-01
  9.701080e-01
  7.116547e-01
  2.859849e-01
  8.978288e-02
  4.797704e-02
  6.411292e-02
  1.655679e-01
  4.306701e-01
  6.979428e-01
  8.080501e-01
  8.429507e-01
  8.571615e-01
  8.722595e-01
  8.941171e-01
  9.178687e-01
  9.380833e-01
  9.524976e-01
  9.583669e-01
  9.528766e-01
  9.370697e-01
  9.187284e-01
  9.116566e-01
  9.248666e-01
  9.510108e-01
  9.746308e-01
  9.808752e-01
  9.331281e-01
  6.909559e-01
  2.136310e-01
  6.458247e-02
  3.180530e-02
  2.709918e-02
  3.640398e-02
  6.885528e-02
  1.596541e-01
  3.795707e-01
  7.144600e-01
  9.031916e-01
  9.693375e-01
  9.849766e-01
  9.604288e-01
  8.155069e-01
  3.628341e-01
  1.484710e-01
  1.827423e-01
  4.490915e-01
  7.026957e-01
  7.550899e-01
  6.228844e-01
  3.062680e-01
  9.707372e-02
  3.834769e-02
  3.355248e-02
  9.255692e-02
  3.801200e-01
  8.365986e-01
  9.470365e-01
  9.190572e-01
  6.965640e-01
  1.845317e-01
  6.794733e-02
  1.456866e-01
  5.010371e-01
  8.142739e-01
  8.683763e-01
  3.240928e-01
  1.370962e-01
  6.357526e-02
  5.593796e-02
  1.175326e-01
  3.835323e-01
  7.849312e-01
  9.342479e-01
  9.708469e-01
  9.749357e-01
  9.683770e-01
  9.562689e-01
  9.409369e-01
  9.283518e-01
  9.208554e-01
  9.134322e-01
  8.964080e-01
  8.629171e-01
  8.178872e-01
  7.765163e-01
  7.599163e-01
  7.829561e-01
  8.360609e-01
  8.896822e-01
  9.066658e-01
  8.336663e-01
  5.404793e-01
  1.661920e-01
  5.550781e-02
  2.858363e-02
  2.097144e-02
  1.965437e-02
  2.492945e-02
  4.736483e-02
  1.226750e-01
  3.375516e-01
  6.903261e-01
  8.860627e-01
  9.508449e-01
  9.421156e-01
  8.004589e-01
  3.504384e-01
  1.250907e-01
  9.285385e-02
  1.484768e-01
  2.262849e-01
  2.485204e-01
  1.947019e-01
  1.047257e-01
  4.984296e-02
  2.952687e-02
  2.750440e-02
  6.469329e-02
  2.685068e-01
  7.823537e-01
  9.356195e-01
  9.214464e-01
  7.164160e-01
  1.986245e-01
  5.723563e-02
  7.229624e-02
  1.981028e-01
  3.951249e-01
  4.644769e-01
  1.113799e-01
  6.849682e-02
  5.089469e-02
  6.480335e-02
  1.707632e-01
  5.759760e-01
  9.076244e-01
  9.884391e-01
  9.998586e-01
  9.914105e-01
  9.672063e-01
  9.168362e-01
  8.346264e-01
  7.547732e-01
  6.951654e-01
  6.392894e-01
  5.563186e-01
  4.386444e-01
  3.298166e-01
  2.641293e-01
  2.437055e-01
  2.726652e-01
  3.640490e-01
  4.956330e-01
  5.523525e-01
  4.444064e-01
  2.289174e-01
  8.628013e-02
  3.990575e-02
  2.613271e-02
  2.204163e-02
  2.184677e-02
  2.397788e-02
  3.009293e-02
  5.064264e-02
  1.193973e-01
  3.026159e-01
  5.872871e-01
  7.515386e-01
  7.538764e-01
  5.605128e-01
  2.183852e-01
  8.571814e-02
  5.602849e-02
  6.009056e-02
  7.405598e-02
  8.146178e-02
  7.550147e-02
  6.048476e-02
  4.635112e-02
  3.498328e-02
  2.973335e-02
  5.330860e-02
  2.118748e-01
  7.309878e-01
  9.271906e-01
  9.342180e-01
  7.723691e-01
  2.627276e-01
  6.627252e-02
  4.130634e-02
  7.054096e-02
  1.210662e-01
  1.430170e-01
  5.913541e-02
  5.064778e-02
  4.746905e-02
  6.540492e-02
  1.710472e-01
  5.675367e-01
  8.970174e-01
  9.772624e-01
  9.828078e-01
  9.544037e-01
  8.716630e-01
  6.865082e-01
  4.114852e-01
  2.428095e-01
  1.804235e-01
  1.558707e-01
  1.360891e-01
  1.138423e-01
  9.738106e-02
  8.976975e-02
  8.549451e-02
  8.631391e-02
  1.029774e-01
  1.356419e-01
  1.541180e-01
  1.294637e-01
  7.995727e-02
  4.545932e-02
  3.149823e-02
  2.853177e-02
  3.316028e-02
  4.446092e-02
  5.756866e-02
  6.699878e-02
  7.222483e-02
  8.211233e-02
  1.162885e-01
  1.863701e-01
  2.492495e-01
  2.543465e-01
  1.845288e-01
  9.343089e-02
  5.312041e-02
  4.067583e-02
  4.008706e-02
  4.820088e-02
  6.691903e-02
  9.223698e-02
  1.089235e-01
  1.037183e-01
  7.886950e-02
  5.259127e-02
  5.620221e-02
  1.808522e-01
  6.680644e-01
  9.169337e-01
  9.505583e-01
  8.453796e-01
  4.113744e-01
  1.031403e-01
  3.801926e-02
  3.762453e-02
  5.201717e-02
  6.194546e-02
  7.724609e-02
  6.898845e-02
  5.648587e-02
  5.995346e-02
  1.189130e-01
  3.558655e-01
  7.191301e-01
  8.539988e-01
  8.587740e-01
  7.703211e-01
  5.407253e-01
  2.573156e-01
  1.077999e-01
  5.245712e-02
  3.696346e-02
  3.586195e-02
  4.225157e-02
  6.119629e-02
  1.017965e-01
  1.467649e-01
  1.528254e-01
  1.145472e-01
  7.445108e-02
  5.948561e-02
  5.677283e-02
  5.176162e-02
  4.364390e-02
  3.888335e-02
  4.197970e-02
  5.706984e-02
  9.291667e-02
  1.562346e-01
  2.221965e-01
  2.619927e-01
  2.619482e-01
  2.223547e-01
  1.583436e-01
  1.072566e-01
  8.695197e-02
  7.837673e-02
  6.392139e-02
  4.663678e-02
  3.699381e-02
  3.396312e-02
  3.986443e-02
  6.964966e-02
  1.543507e-01
  2.802924e-01
  3.717223e-01
  3.700453e-01
  2.774392e-01
  1.540676e-01
  8.628112e-02
  1.612041e-01
  5.715432e-01
  8.951877e-01
  9.619522e-01
  9.097392e-01
  6.169224e-01
  1.709519e-01
  5.343498e-02
  4.159523e-02
  5.580068e-02
  7.191338e-02
  2.416592e-01
  1.946443e-01
  1.136669e-01
  6.745877e-02
  7.224430e-02
  1.404974e-01
  2.815283e-01
  3.911910e-01
  3.882639e-01
  2.857866e-01
  1.604727e-01
  7.114176e-02
  3.049693e-02
  1.632951e-02
  1.419724e-02
  2.061451e-02
  4.557020e-02
  1.282715e-01
  3.146354e-01
  5.074193e-01
  5.333627e-01
  3.686019e-01
  1.659030e-01
  7.290566e-02
  4.858450e-02
  4.861233e-02
  6.113630e-02
  8.432219e-02
  1.274794e-01
  2.059124e-01
  3.500608e-01
  5.694207e-01
  7.285433e-01
  7.914239e-01
  7.889445e-01
  7.083939e-01
  4.932886e-01
  2.331461e-01
  9.238623e-02
  4.796476e-02
  3.603109e-02
  3.144799e-02
  2.956586e-02
  3.266117e-02
  5.674474e-02
  1.634289e-01
  4.625169e-01
  7.500333e-01
  8.526725e-01
  8.552881e-01
  7.588257e-01
  4.740209e-01
  1.771837e-01
  1.518107e-01
  4.327278e-01
  8.389521e-01
  9.539212e-01
  9.372779e-01
  7.401362e-01
  2.558895e-01
  1.018433e-01
  1.073769e-01
  1.684569e-01
  2.271300e-01
  7.564937e-01
  6.288987e-01
  3.271934e-01
  1.154057e-01
  6.052671e-02
  6.398966e-02
  9.298225e-02
  1.200866e-01
  1.198141e-01
  9.143772e-02
  5.667947e-02
  3.176137e-02
  1.897602e-02
  1.397656e-02
  1.498953e-02
  2.877294e-02
  9.362578e-02
  3.414430e-01
  7.280900e-01
  8.854963e-01
  8.970569e-01
  7.680068e-01
  3.896145e-01
  1.321547e-01
  7.627484e-02
  1.054711e-01
  1.934697e-01
  3.143745e-01
  4.801573e-01
  6.575720e-01
  7.865663e-01
  8.756272e-01
  9.273744e-01
  9.515162e-01
  9.558372e-01
  9.321837e-01
  8.368646e-01
  5.683962e-01
  2.080202e-01
  6.604758e-02
  3.292616e-02
  2.644898e-02
  2.660746e-02
  3.736908e-02
  9.874849e-02
  3.569045e-01
  7.763992e-01
  9.394641e-01
  9.805978e-01
  9.826344e-01
  9.409921e-01
  7.531119e-01
  2.908054e-01
  1.440384e-01
  2.766567e-01
  6.775925e-01
  8.786608e-01
  8.966132e-01
  7.391024e-01
  3.462841e-01
  2.504200e-01
  3.842385e-01
  6.077491e-01
  7.417263e-01
  9.570996e-01
  8.943689e-01
  6.376769e-01
  1.993349e-01
  6.806906e-02
  4.660797e-02
  5.497971e-02
  7.290432e-02
  8.360019e-02
  7.382010e-02
  5.105827e-02
  3.242763e-02
  2.217558e-02
  1.765288e-02
  1.982561e-02
  4.491517e-02
  1.741033e-01
  6.170237e-01
  9.049196e-01
  9.778004e-01
  9.768463e-01
  8.912725e-01
  5.534302e-01
  1.960931e-01
  1.461033e-01
  3.110851e-01
  6.124463e-01
  7.895557e-01
  8.640728e-01
  8.976200e-01
  9.077282e-01
  9.165890e-01
  9.370881e-01
  9.631461e-01
  9.802151e-01
  9.819542e-01
  9.532104e-01
  8.246285e-01
  4.395627e-01
  1.210459e-01
  4.112164e-02
  2.623941e-02
  2.713696e-02
  4.890991e-02
  1.668042e-01
  6.006036e-01
  9.059895e-01
  9.843803e-01
  9.999000e-01
  9.999000e-01
  9.710509e-01
  8.169363e-01
  3.269382e-01
  1.222648e-01
  1.398993e-01
  3.314260e-01
  5.821459e-01
  6.565427e-01
  5.349634e-01
  3.738718e-01
  5.241281e-01
  7.783203e-01
  9.061723e-01
  9.538472e-01
  9.982778e-01
  9.595949e-01
  7.639036e-01
  2.471356e-01
  7.482575e-02
  5.068196e-02
  7.892343e-02
  1.442814e-01
  1.995587e-01
  1.823289e-01
  1.080927e-01
  5.273342e-02
  3.013424e-02
  2.228362e-02
  2.584597e-02
  6.660464e-02
  2.668453e-01
  7.663112e-01
  9.471073e-01
  9.772610e-01
  9.531939e-01
  8.376539e-01
  4.835516e-01
  2.002571e-01
  2.376308e-01
  6.104639e-01
  8.773416e-01
  9.510668e-01
  9.531916e-01
  9.112761e-01
  8.277225e-01
  7.734914e-01
  8.089197e-01
  9.010738e-01
  9.642355e-01
  9.880678e-01
  9.856732e-01
  9.299165e-01
  6.809402e-01
  1.995404e-01
  5.625942e-02
  2.939970e-02
  3.108892e-02
  6.586229e-02
  2.391975e-01
  7.449944e-01
  9.464466e-01
  9.876957e-01
  9.907512e-01
  9.787096e-01
  9.271311e-01
  7.215355e-01
  2.591381e-01
  9.107442e-02
  7.111730e-02
  1.130045e-01
  1.815145e-01
  2.140948e-01
  2.060609e-01
  2.717254e-01
  6.262832e-01
  8.982187e-01
  9.776247e-01
  9.982948e-01
  9.967589e-01
  9.490741e-01
  7.296212e-01
  2.274639e-01
  7.613642e-02
  8.501025e-02
  2.138192e-01
  4.637626e-01
  6.400055e-01
  5.854512e-01
  3.154529e-01
  1.072199e-01
  4.343482e-02
  2.794274e-02
  3.577287e-02
  1.053039e-01
  3.994660e-01
  8.284990e-01
  9.316258e-01
  9.052526e-01
  7.959067e-01
  5.594161e-01
  2.481620e-01
  1.382260e-01
  2.517610e-01
  6.970664e-01
  9.257142e-01
  9.650071e-01
  9.186957e-01
  7.504481e-01
  4.499909e-01
  2.930351e-01
  3.731115e-01
  6.757109e-01
  9.038878e-01
  9.788167e-01
  9.942833e-01
  9.654618e-01
  7.901110e-01
  2.602786e-01
  7.070808e-02
  3.495198e-02
  3.989098e-02
  9.049712e-02
  3.066116e-01
  7.853068e-01
  9.332989e-01
  9.493194e-01
  9.241245e-01
  8.622490e-01
  7.229752e-01
  4.139326e-01
  1.421046e-01
  6.160846e-02
  4.774987e-02
  5.421632e-02
  6.686392e-02
  7.490702e-02
  8.780008e-02
  1.771477e-01
  5.406734e-01
  8.857108e-01
  9.804406e-01
  9.999000e-01
  9.515027e-01
  8.506260e-01
  5.256740e-01
  1.584595e-01
  8.681313e-02
  1.955890e-01
  5.419892e-01
  8.302935e-01
  9.212895e-01
  8.824311e-01
  6.254090e-01
  1.903513e-01
  5.967064e-02
  3.534779e-02
  5.633479e-02
  1.859999e-01
  5.880992e-01
  8.538988e-01
  8.408386e-01
  6.461360e-01
  3.628330e-01
  1.796439e-01
  8.924509e-02
  7.954541e-02
  1.794212e-01
  5.354608e-01
  8.119678e-01
  8.527176e-01
  7.204167e-01
  3.826092e-01
  1.382009e-01
  6.585534e-02
  1.053076e-01
  3.316494e-01
  7.651044e-01
  9.472214e-01
  9.889832e-01
  9.672736e-01
  8.006721e-01
  2.743128e-01
  7.784295e-02
  4.432473e-02
  6.208724e-02
  1.392089e-01
  3.700020e-01
  7.215006e-01
  8.040328e-01
  7.591189e-01
  6.377306e-01
  4.442195e-01
  2.647091e-01
  1.366176e-01
  6.880820e-02
  4.951881e-02
  4.601039e-02
  4.535566e-02
  4.510172e-02
  4.546067e-02
  5.338186e-02
  1.066436e-01
  3.378643e-01
  7.572511e-01
  9.271049e-01
  9.662008e-01
  7.429367e-01
  5.346699e-01
  2.327717e-01
  9.643913e-02
  1.390543e-01
  4.268718e-01
  8.113149e-01
  9.540986e-01
  9.855453e-01
  9.497773e-01
  7.340024e-01
  2.249525e-01
  6.597118e-02
  4.440419e-02
  9.820180e-02
  3.434116e-01
  7.499111e-01
  8.396517e-01
  6.218702e-01
  2.622882e-01
  1.012587e-01
  5.062696e-02
  3.831824e-02
  4.787088e-02
  9.287027e-02
  2.243589e-01
  3.937302e-01
  4.227992e-01
  2.850105e-01
  1.250082e-01
  4.345263e-02
  1.959178e-02
  3.689595e-02
  1.481718e-01
  5.124468e-01
  8.452591e-01
  9.411274e-01
  9.129435e-01
  6.945159e-01
  2.259607e-01
  7.701284e-02
  7.010913e-02
  1.369898e-01
  2.797744e-01
  4.548266e-01
  4.984114e-01
  3.828641e-01
  2.577622e-01
  1.715196e-01
  1.109412e-01
  7.600614e-02
  6.426034e-02
  6.977887e-02
  7.942808e-02
  7.875929e-02
  6.491576e-02
  4.983160e-02
  4.248612e-02
  4.293189e-02
  6.355912e-02
  1.577054e-01
  4.237014e-01
  6.968240e-01
  7.868530e-01
  2.372002e-01
  1.581776e-01
  8.636814e-02
  9.292602e-02
  2.785520e-01
  7.118278e-01
  9.295569e-01
  9.866291e-01
  9.894239e-01
  9.299056e-01
  6.589099e-01
  1.872351e-01
  5.772289e-02
  5.525811e-02
  1.690824e-01
  5.785789e-01
  8.518892e-01
  8.055990e-01
  3.860995e-01
  1.051463e-01
  3.428024e-02
  2.395176e-02
  2.938532e-02
  4.076015e-02
  5.913793e-02
  9.243815e-02
  1.301618e-01
  1.321690e-01
  9.251217e-02
  4.959397e-02
  2.534891e-02
  1.699743e-02
  2.401676e-02
  6.807370e-02
  2.267975e-01
  5.411272e-01
  7.200893e-01
  6.707476e-01
  3.893875e-01
  1.362930e-01
  8.386663e-02
  1.599218e-01
  3.832370e-01
  6.277764e-01
  6.378351e-01
  3.452564e-01
  1.457085e-01
  7.166738e-02
  4.557188e-02
  4.159383e-02
  6.298018e-02
  1.210079e-01
  2.048025e-01
  2.601951e-01
  2.465243e-01
  1.636207e-01
  8.221095e-02
  5.055936e-02
  4.189845e-02
  4.533376e-02
  6.940012e-02
  1.356412e-01
  2.227976e-01
  2.646169e-01
  7.028455e-02
  5.586457e-02
  5.861357e-02
  1.492609e-01
  5.249928e-01
  8.748391e-01
  9.749424e-01
  9.918435e-01
  9.668178e-01
  8.353639e-01
  4.246540e-01
  1.113162e-01
  4.195992e-02
  6.645821e-02
  2.499916e-01
  7.420547e-01
  9.013725e-01
  7.827591e-01
  2.745373e-01
  6.415418e-02
  2.488402e-02
  2.904302e-02
  4.801651e-02
  6.900348e-02
  8.079831e-02
  8.051018e-02
  7.258605e-02
  6.143906e-02
  4.735746e-02
  3.489785e-02
  2.784940e-02
  2.602368e-02
  2.922129e-02
  4.314662e-02
  8.560464e-02
  1.705353e-01
  2.348257e-01
  2.153566e-01
  1.324716e-01
  8.229070e-02
  1.355236e-01
  3.959473e-01
  7.468553e-01
  8.695836e-01
  7.611226e-01
  2.939500e-01
  8.360716e-02
  3.427331e-02
  3.143250e-02
  6.555651e-02
  1.823845e-01
  4.223978e-01
  6.789871e-01
  7.790637e-01
  7.345765e-01
  4.869871e-01
  1.733517e-01
  7.043168e-02
  4.633591e-02
  4.291222e-02
  4.778021e-02
  5.985489e-02
  7.386203e-02
  7.862080e-02
  3.981417e-02
  3.946739e-02
  6.899969e-02
  2.324327e-01
  7.330063e-01
  9.477969e-01
  9.910713e-01
  9.807169e-01
  9.013835e-01
  6.196524e-01
  2.014187e-01
  5.224882e-02
  2.959750e-02
  8.123161e-02
  3.414882e-01
  8.186635e-01
  9.182574e-01
  7.625299e-01
  2.342762e-01
  5.802795e-02
  3.641820e-02
  7.053785e-02
  1.501952e-01
  2.283028e-01
  2.479183e-01
  1.956653e-01
  1.110102e-01
  6.049795e-02
  4.272116e-02
  3.949315e-02
  4.616178e-02
  5.771718e-02
  6.449960e-02
  6.411154e-02
  6.277877e-02
  6.961398e-02
  7.695703e-02
  7.154326e-02
  6.067859e-02
  8.559732e-02
  2.589000e-01
  6.955141e-01
  9.122328e-01
  9.415733e-01
  7.949697e-01
  2.691640e-01
  6.827120e-02
  3.325143e-02
  5.661052e-02
  1.827553e-01
  5.212878e-01
  8.159874e-01
  9.334194e-01
  9.645424e-01
  9.350689e-01
  7.528450e-01
  2.772128e-01
  9.275999e-02
  5.436046e-02
  5.305431e-02
  6.066395e-02
  6.396385e-02
  5.808756e-02
  4.791489e-02
  4.648228e-02
  4.241137e-02
  8.276859e-02
  2.870729e-01
  8.061747e-01
  9.677725e-01
  9.855792e-01
  9.350320e-01
  7.350520e-01
  3.069527e-01
  7.922888e-02
  2.222855e-02
  2.539258e-02
  1.088930e-01
  4.684467e-01
  8.626551e-01
  9.156544e-01
  7.173983e-01
  2.067532e-01
  6.240892e-02
  7.495978e-02
  2.224863e-01
  5.230732e-01
  7.291674e-01
  7.560979e-01
  6.148367e-01
  3.067146e-01
  1.088410e-01
  5.842050e-02
  6.696987e-02
  1.224805e-01
  1.989314e-01
  2.333121e-01
  2.064774e-01
  1.363088e-01
  7.614168e-02
  5.024764e-02
  4.254280e-02
  5.071492e-02
  1.234690e-01
  4.431770e-01
  8.530244e-01
  9.653314e-01
  9.562330e-01
  7.875281e-01
  2.473800e-01
  6.444384e-02
  4.487215e-02
  1.150583e-01