# vtk DataFile Version 2.0
time_10.vtk
ASCII
DATASET STRUCTURED_GRID
DIMENSIONS    64    64     1
POINTS    4096 float
  0.000000e+00   0.000000e+00   0.000000e+00
  0.000000e+00   1.000000e+00   0.000000e+00
  0.000000e+00   2.000000e+00   0.000000e+00
  0.000000e+00   3.000000e+00   0.000000e+00
  0.000000e+00   4.000000e+00   0.000000e+00
  0.000000e+00   5.000000e+00   0.000000e+00
  0.000000e+00   6.000000e+00   0.000000e+00
  0.000000e+00   7.000000e+00   0.000000e+00
  0.000000e+00   8.000000e+00   0.000000e+00
  0.000000e+00   9.000000e+00   0.000000e+00
  0.000000e+00   1.000000e+01   0.000000e+00
  0.000000e+00   1.100000e+01   0.000000e+00
  0.000000e+00   1.200000e+01   0.000000e+00
  0.000000e+00   1.300000e+01   0.000000e+00
  0.000000e+00   1.400000e+01   0.000000e+00
  0.000000e+00   1.500000e+01   0.000000e+00
  0.000000e+00   1.600000e+01   0.000000e+00
  0.000000e+00   1.700000e+01   0.000000e+00
  0.000000e+00   1.800000e+01   0.000000e+00
  0.000000e+00   1.900000e+01   0.000000e+00
  0.000000e+00   2.000000e+01   0.000000e+00
  0.000000e+00   2.100000e+01   0.000000e+00
  0.000000e+00   2.200000e+01   0.000000e+00
  0.000000e+00   2.300000e+01   0.000000e+00
  0.000000e+00   2.400000e+01   0.000000e+00
  0.000000e+00   2.500000e+01   0.000000e+00
  0.000000e+00   2.600000e+01   0.000000e+00
  0.000000e+00   2.700000e+01   0.000000e+00
  0.000000e+00   2.800000e+01   0.000000e+00
  0.000000e+00   2.900000e+01   0.000000e+00
  0.000000e+00   3.000000e+01   0.000000e+00
  0.000000e+00   3.100000e+01   0.000000e+00
  0.000000e+00   3.200000e+01   0.000000e+00
  0.000000e+00   3.300000e+01   0.000000e+00
  0.000000e+00   3.400000e+01   0.000000e+00
  0.000000e+00   3.500000e+01   0.000000e+00
  0.000000e+00   3.600000e+01   0.000000e+00
  0.000000e+00   3.700000e+01   0.000000e+00
  0.000000e+00   3.800000e+01   0.000000e+00
  0.000000e+00   3.900000e+01   0.000000e+00
  0.000000e+00   4.000000e+01   0.000000e+00
  0.000000e+00   4.100000e+01   0.000000e+00
  0.000000e+00   4.200000e+01   0.000000e+00
  0.000000e+00   4.300000e+01   0.000000e+00
  0.000000e+00   4.400000e+01   0.000000e+00
  0.000000e+00   4.500000e+01   0.000000e+00
  0.000000e+00   4.600000e+01   0.000000e+00
  0.000000e+00   4.700000e+01   0.000000e+00
  0.000000e+00   4.800000e+01   0.000000e+00
  0.000000e+00   4.900000e+01   0.000000e+00
  0.000000e+00   5.000000e+01   0.000000e+00
  0.000000e+00   5.100000e+01   0.000000e+00
  0.000000e+00   5.200000e+01   0.000000e+00
  0.000000e+00   5.300000e+01   0.000000e+00
  0.000000e+00   5.400000e+01   0.000000e+00
  0.000000e+00   5.500000e+01   0.000000e+00
  0.000000e+00   5.600000e+01   0.000000e+00
  0.000000e+00   5.700000e+01   0.000000e+00
  0.000000e+00   5.800000e+01   0.000000e+00
  0.000000e+00   5.900000e+01   0.000000e+00
  0.000000e+00   6.000000e+01   0.000000e+00
  0.000000e+00   6.100000e+01   0.000000e+00
  0.000000e+00   6.200000e+01   0.000000e+00
  0.000000e+00   6.300000e+01   0.000000e+00
  1.000000e+00   0.000000e+00   0.000000e+00
  1.000000e+00   1.000000e+00   0.000000e+00
  1.000000e+00   2.000000e+00   0.000000e+00
  1.000000e+00   3.000000e+00   0.000000e+00
  1.000000e+00   4.000000e+00   0.000000e+00
  1.000000e+00   5.000000e+00   0.000000e+00
  1.000000e+00   6.000000e+00   0.000000e+00
  1.000000e+00   7.000000e+00   0.000000e+00
  1.000000e+00   8.000000e+00   0.000000e+00
  1.000000e+00   9.000000e+00   0.000000e+00
  1.000000e+00   1.000000e+01   0.000000e+00
  1.000000e+00   1.100000e+01   0.000000e+00
  1.000000e+00   1.200000e+01   0.000000e+00
  1.000000e+00   1.300000e+01   0.000000e+00
  1.000000e+00   1.400000e+01   0.000000e+00
  1.000000e+00   1.500000e+01   0.000000e+00
  1.000000e+00   1.600000e+01   0.000000e+00
  1.000000e+00   1.700000e+01   0.000000e+00
  1.000000e+00   1.800000e+01   0.000000e+00
  1.000000e+00   1.900000e+01   0.000000e+00
  1.000000e+00   2.000000e+01   0.000000e+00
  1.000000e+00   2.100000e+01   0.000000e+00
  1.000000e+00   2.200000e+01   0.000000e+00
  1.000000e+00   2.300000e+01   0.000000e+00
  1.000000e+00   2.400000e+01   0.000000e+00
  1.000000e+00   2.500000e+01   0.000000e+00
  1.000000e+00   2.600000e+01   0.000000e+00
  1.000000e+00   2.700000e+01   0.000000e+00
  1.000000e+00   2.800000e+01   0.000000e+00
  1.000000e+00   2.900000e+01   0.000000e+00
  1.000000e+00   3.000000e+01   0.000000e+00
  1.000000e+00   3.100000e+01   0.000000e+00
  1.000000e+00   3.200000e+01   0.000000e+00
  1.000000e+00   3.300000e+01   0.000000e+00
  1.000000e+00   3.400000e+01   0.000000e+00
  1.000000e+00   3.500000e+01   0.000000e+00
  1.000000e+00   3.600000e+01   0.000000e+00
  1.000000e+00   3.700000e+01   0.000000e+00
  1.000000e+00   3.800000e+01   0.000000e+00
  1.000000e+00   3.900000e+01   0.000000e+00
  1.000000e+00   4.000000e+01   0.000000e+00
  1.000000e+00   4.100000e+01   0.000000e+00
  1.000000e+00   4.200000e+01   0.000000e+00
  1.000000e+00   4.300000e+01   0.000000e+00
  1.000000e+00   4.400000e+01   0.000000e+00
  1.000000e+00   4.500000e+01   0.000000e+00
  1.000000e+00   4.600000e+01   0.000000e+00
  1.000000e+00   4.700000e+01   0.000000e+00
  1.000000e+00   4.800000e+01   0.000000e+00
  1.000000e+00   4.900000e+01   0.000000e+00
  1.000000e+00   5.000000e+01   0.000000e+00
  1.000000e+00   5.100000e+01   0.000000e+00
  1.000000e+00   5.200000e+01   0.000000e+00
  1.000000e+00   5.300000e+01   0.000000e+00
  1.000000e+00   5.400000e+01   0.000000e+00
  1.000000e+00   5.500000e+01   0.000000e+00
  1.000000e+00   5.600000e+01   0.000000e+00
  1.000000e+00   5.700000e+01   0.000000e+00
  1.000000e+00   5.800000e+01   0.000000e+00
  1.000000e+00   5.900000e+01   0.000000e+00
  1.000000e+00   6.000000e+01   0.000000e+00
  1.000000e+00   6.100000e+01   0.000000e+00
  1.000000e+00   6.200000e+01   0.000000e+00
  1.000000e+00   6.300000e+01   0.000000e+00
  2.000000e+00   0.000000e+00   0.000000e+00
  2.000000e+00   1.000000e+00   0.000000e+00
  2.000000e+00   2.000000e+00   0.000000e+00
  2.000000e+00   3.000000e+00   0.000000e+00
  2.000000e+00   4.000000e+00   0.000000e+00
  2.000000e+00   5.000000e+00   0.000000e+00
  2.000000e+00   6.000000e+00   0.000000e+00
  2.000000e+00   7.000000e+00   0.000000e+00
  2.000000e+00   8.000000e+00   0.000000e+00
  2.000000e+00   9.000000e+00   0.000000e+00
  2.000000e+00   1.000000e+01   0.000000e+00
  2.000000e+00   1.100000e+01   0.000000e+00
  2.000000e+00   1.200000e+01   0.000000e+00
  2.000000e+00   1.300000e+01   0.000000e+00
  2.000000e+00   1.400000e+01   0.000000e+00
  2.000000e+00   1.500000e+01   0.000000e+00
  2.000000e+00   1.600000e+01   0.000000e+00
  2.000000e+00   1.700000e+01   0.000000e+00
  2.000000e+00   1.800000e+01   0.000000e+00
  2.000000e+00   1.900000e+01   0.000000e+00
  2.000000e+00   2.000000e+01   0.000000e+00
  2.000000e+00   2.100000e+01   0.000000e+00
  2.000000e+00   2.200000e+01   0.000000e+00
  2.000000e+00   2.300000e+01   0.000000e+00
  2.000000e+00   2.400000e+01   0.000000e+00
  2.000000e+00   2.500000e+01   0.000000e+00
  2.000000e+00   2.600000e+01   0.000000e+00
  2.000000e+00   2.700000e+01   0.000000e+00
  2.000000e+00   2.800000e+01   0.000000e+00
  2.000000e+00   2.900000e+01   0.000000e+00
  2.000000e+00   3.000000e+01   0.000000e+00
  2.000000e+00   3.100000e+01   0.000000e+00
  2.000000e+00   3.200000e+01   0.000000e+00
  2.000000e+00   3.300000e+01   0.000000e+00
  2.000000e+00   3.400000e+01   0.000000e+00
  2.000000e+00   3.500000e+01   0.000000e+00
  2.000000e+00   3.600000e+01   0.000000e+00
  2.000000e+00   3.700000e+01   0.000000e+00
  2.000000e+00   3.800000e+01   0.000000e+00
  2.000000e+00   3.900000e+01   0.000000e+00
  2.000000e+00   4.000000e+01   0.000000e+00
  2.000000e+00   4.100000e+01   0.000000e+00
  2.000000e+00   4.200000e+01   0.000000e+00
  2.000000e+00   4.300000e+01   0.000000e+00
  2.000000e+00   4.400000e+01   0.000000e+00
  2.000000e+00   4.500000e+01   0.000000e+00
  2.000000e+00   4.600000e+01   0.000000e+00
  2.000000e+00   4.700000e+01   0.000000e+00
  2.000000e+00   4.800000e+01   0.000000e+00
  2.000000e+00   4.900000e+01   0.000000e+00
  2.000000e+00   5.000000e+01   0.000000e+00
  2.000000e+00   5.100000e+01   0.000000e+00
  2.000000e+00   5.200000e+01   0.000000e+00
  2.000000e+00   5.300000e+01   0.000000e+00
  2.000000e+00   5.400000e+01   0.000000e+00
  2.000000e+00   5.500000e+01   0.000000e+00
  2.000000e+00   5.600000e+01   0.000000e+00
  2.000000e+00   5.700000e+01   0.000000e+00
  2.000000e+00   5.800000e+01   0.000000e+00
  2.000000e+00   5.900000e+01   0.000000e+00
  2.000000e+00   6.000000e+01   0.000000e+00
  2.000000e+00   6.100000e+01   0.000000e+00
  2.000000e+00   6.200000e+01   0.000000e+00
  2.000000e+00   6.300000e+01   0.000000e+00
  3.000000e+00   0.000000e+00   0.000000e+00
  3.000000e+00   1.000000e+00   0.000000e+00
  3.000000e+00   2.000000e+00   0.000000e+00
  3.000000e+00   3.000000e+00   0.000000e+00
  3.000000e+00   4.000000e+00   0.000000e+00
  3.000000e+00   5.000000e+00   0.000000e+00
  3.000000e+00   6.000000e+00   0.000000e+00
  3.000000e+00   7.000000e+00   0.000000e+00
  3.000000e+00   8.000000e+00   0.000000e+00
  3.000000e+00   9.000000e+00   0.000000e+00
  3.000000e+00   1.000000e+01   0.000000e+00
  3.000000e+00   1.100000e+01   0.000000e+00
  3.000000e+00   1.200000e+01   0.000000e+00
  3.000000e+00   1.300000e+01   0.000000e+00
  3.000000e+00   1.400000e+01   0.000000e+00
  3.000000e+00   1.500000e+01   0.000000e+00
  3.000000e+00   1.600000e+01   0.000000e+00
  3.000000e+00   1.700000e+01   0.000000e+00
  3.000000e+00   1.800000e+01   0.000000e+00
  3.000000e+00   1.900000e+01   0.000000e+00
  3.000000e+00   2.000000e+01   0.000000e+00
  3.000000e+00   2.100000e+01   0.000000e+00
  3.000000e+00   2.200000e+01   0.000000e+00
  3.000000e+00   2.300000e+01   0.000000e+00
  3.000000e+00   2.400000e+01   0.000000e+00
  3.000000e+00   2.500000e+01   0.000000e+00
  3.000000e+00   2.600000e+01   0.000000e+00
[...]
POINT_DATA  4096
SCALARS CON float 1
LOOKUP_TABLE default
  2.153840e-01
  7.350953e-01
  9.526073e-01
  9.966182e-01
  9.999000e-01
  9.987665e-01
  9.637864e-01
  7.782061e-01
  2.415037e-01
  6.209159e-02
  2.703395e-02
  2.167461e-02
  2.180799e-02
  2.298551e-02
  2.449964e-02
  2.622902e-02
  2.800902e-02
  2.949617e-02
  3.019281e-02
  2.960238e-02
  2.746737e-02
  2.403647e-02
  2.035592e-02
  1.809398e-02
  2.029772e-02
  4.022390e-02
  1.301408e-01
  4.140003e-01
  7.816218e-01
  9.361499e-01
  9.804556e-01
  9.911407e-01
  9.916470e-01
  9.859602e-01
  9.687607e-01
  9.255215e-01
  8.279649e-01
  6.327809e-01
  3.301048e-01
  1.272238e-01
  5.048367e-02
  3.253387e-02
  3.186441e-02
  3.495140e-02
  3.746791e-02
  3.789677e-02
  3.611000e-02
  3.299221e-02
  2.995255e-02
  2.910717e-02
  3.475645e-02
  5.948293e-02
  1.328799e-01
  2.471546e-01
  3.323793e-01
  3.450786e-01
  2.821381e-01
  1.776178e-01
  8.247100e-02
  3.651267e-02
  2.163860e-02
  1.874476e-02
  2.397603e-02
  5.574098e-02
  1.579695e-01
  5.797802e-01
  8.925435e-01
  9.768950e-01
  9.931606e-01
  9.868162e-01
  9.320508e-01
  6.964426e-01
  2.094861e-01
  6.506563e-02
  4.369716e-02
  4.854594e-02
  5.651219e-02
  6.345849e-02
  6.968550e-02
  7.587396e-02
  8.187785e-02
  8.631876e-02
  8.682357e-02
  8.109823e-02
  6.829777e-02
  5.020162e-02
  3.278556e-02
  2.260899e-02
  1.880541e-02
  2.261844e-02
  4.995529e-02
  1.587457e-01
  4.579434e-01
  7.952277e-01
  9.371028e-01
  9.801409e-01
  9.917665e-01
  9.939352e-01
  9.918345e-01
  9.840939e-01
  9.628995e-01
  9.032439e-01
  7.272100e-01
  3.530055e-01
  1.067639e-01
  4.295225e-02
  3.044876e-02
  2.877314e-02
  2.884083e-02
  2.874921e-02
  2.824651e-02
  2.763032e-02
  2.773933e-02
  3.136764e-02
  5.029953e-02
  1.334742e-01
  4.087374e-01
  7.185117e-01
  8.349275e-01
  8.479965e-01
  7.846810e-01
  5.823213e-01
  2.591079e-01
  8.178224e-02
  3.000832e-02
  1.878727e-02
  2.105676e-02
  4.390504e-02
  8.400784e-02
  2.992471e-01
  6.864786e-01
  8.770550e-01
  9.317154e-01
  9.160676e-01
  8.000524e-01
  4.698428e-01
  1.575688e-01
  9.909869e-02
  1.353918e-01
  1.932482e-01
  2.388730e-01
  2.707800e-01
  2.957980e-01
  3.187685e-01
  3.398813e-01
  3.538935e-01
  3.513579e-01
  3.225955e-01
  2.619438e-01
  1.723562e-01
  8.339253e-02
  3.812859e-02
  2.264472e-02
  1.858347e-02
  2.387839e-02
  5.515103e-02
  1.693033e-01
  4.632056e-01
  7.901542e-01
  9.333872e-01
  9.793081e-01
  9.930382e-01
  9.971288e-01
  9.976984e-01
  9.945084e-01
  9.797861e-01
  9.109052e-01
  6.475510e-01
  1.966212e-01
  6.149678e-02
  3.429439e-02
  2.942331e-02
  2.859912e-02
  2.830714e-02
  2.797455e-02
  2.778043e-02
  2.881689e-02
  3.618195e-02
  7.481142e-02
  2.516737e-01
  7.201865e-01
  9.270101e-01
  9.759540e-01
  9.799829e-01
  9.586537e-01
  8.710500e-01
  5.926200e-01
  1.937350e-01
  5.195418e-02
  2.071193e-02
  1.752078e-02
  2.901390e-02
  3.783592e-02
  1.054234e-01
  2.751089e-01
  5.108532e-01
  6.487561e-01
  6.178016e-01
  4.258243e-01
  2.146707e-01
  1.490157e-01
  2.665615e-01
  4.994904e-01
  6.937726e-01
  7.806739e-01
  8.147913e-01
  8.312776e-01
  8.426136e-01
  8.518325e-01
  8.579228e-01
  8.570995e-01
  8.399841e-01
  7.763253e-01
  5.842004e-01
  2.614853e-01
  8.271755e-02
  3.295439e-02
  2.019772e-02
  1.753561e-02
  2.376007e-02
  5.533416e-02
  1.646189e-01
  4.415329e-01
  7.706972e-01
  9.244551e-01
  9.765716e-01
  9.934256e-01
  9.990970e-01
  9.999000e-01
  9.973605e-01
  9.617785e-01
  7.779481e-01
  2.601918e-01
  7.595937e-02
  3.803363e-02
  3.102159e-02
  2.969787e-02
  2.924690e-02
  2.883204e-02
  2.860052e-02
  2.998688e-02
  4.035084e-02
  9.686022e-02
  3.513772e-01
  8.412487e-01
  9.763922e-01
  9.997006e-01
  9.999000e-01
  9.939559e-01
  9.604622e-01
  8.163240e-01
  3.860064e-01
  9.632640e-02
  2.662753e-02
  1.492313e-02
  1.839057e-02
  1.881836e-02
  3.655496e-02
  7.622299e-02
  1.354017e-01
  1.783654e-01
  1.734704e-01
  1.320868e-01
  1.173292e-01
  2.370449e-01
  6.200498e-01
  8.562253e-01
  9.370023e-01
  9.617679e-01
  9.698868e-01
  9.734982e-01
  9.760609e-01
  9.783642e-01
  9.802422e-01
  9.808726e-01
  9.777251e-01
  9.586955e-01
  8.712733e-01
  5.680870e-01
  1.640089e-01
  4.954836e-02
  2.413242e-02
  1.749020e-02
  1.633456e-02
  2.270138e-02
  5.188174e-02
  1.493788e-01
  3.978502e-01
  7.313982e-01
  9.033628e-01
  9.666208e-01
  9.892518e-01
  9.968395e-01
  9.943441e-01
  9.564905e-01
  7.676216e-01
  2.570503e-01
  7.656711e-02
  3.914235e-02
  3.211141e-02
  3.072346e-02
  3.019496e-02
  2.965271e-02
  2.921995e-02
  3.046287e-02
  4.172465e-02
  1.055506e-01
  3.917483e-01
  8.689831e-01
  9.836562e-01
  9.999000e-01
  9.999000e-01
  9.992143e-01
  9.853408e-01
  9.145958e-01
  6.261899e-01
  1.734069e-01
  3.967883e-02
  1.420272e-02
  1.250052e-02
  1.132306e-02
  1.697643e-02
  2.673949e-02
  3.970560e-02
  5.012336e-02
  5.373292e-02
  5.918052e-02
  1.094848e-01
  3.499663e-01
  8.167951e-01
  9.616447e-01
  9.915225e-01
  9.964537e-01
  9.974273e-01
  9.978939e-01
  9.984150e-01
  9.990325e-01
  9.996281e-01
  9.999000e-01
  9.999000e-01
  9.953315e-01
  9.515540e-01
  7.389962e-01
  2.278814e-01
  6.298901e-02
  2.770547e-02
  1.902698e-02
  1.585196e-02
  1.547546e-02
  2.131300e-02
  4.614471e-02
  1.256977e-01
  3.278689e-01
  6.464209e-01
  8.440552e-01
  9.293363e-01
  9.573734e-01
  9.493528e-01
  8.725027e-01
  5.987969e-01
  1.864125e-01
  6.305565e-02
  3.735891e-02
  3.243806e-02
  3.145429e-02
  3.101616e-02
  3.043030e-02
  2.974588e-02
  3.034211e-02
  3.984257e-02
  9.715903e-02
  3.614261e-01
  8.532985e-01
  9.789242e-01
  9.990446e-01
  9.999000e-01
  9.998174e-01
  9.929283e-01
  9.559467e-01
  7.838406e-01
  2.941863e-01
  6.633230e-02
  1.681446e-02
  9.433872e-03
  7.740443e-03
  1.041016e-02
  1.446319e-02
  1.920594e-02
  2.391345e-02
  2.936540e-02
  4.424645e-02
  1.121601e-01
  3.993222e-01
  8.654665e-01
  9.823864e-01
  9.999000e-01
  9.999000e-01
  9.999000e-01
  9.999000e-01
  9.999000e-01
  9.999000e-01
  9.999000e-01
  9.999000e-01
  9.999000e-01
  9.947845e-01
  9.508113e-01
  7.383354e-01
  2.284474e-01
  6.398606e-02
  2.900603e-02
  2.054322e-02
  1.722991e-02
  1.546615e-02
  1.560351e-02
  2.065814e-02
  3.969202e-02
  9.528066e-02
  2.261043e-01
  4.493661e-01
  6.690450e-01
  7.586605e-01
  7.354007e-01
  5.680039e-01
  2.744943e-01
  9.608694e-02
  4.570749e-02
  3.447473e-02
  3.235568e-02
  3.213253e-02
  3.219442e-02
  3.200344e-02
  3.125563e-02
  3.081194e-02
  3.657827e-02
  7.826528e-02
  2.837904e-01
  7.915313e-01
  9.612054e-01
  9.948750e-01
  9.998020e-01
  9.998050e-01
  9.957146e-01
  9.753874e-01
  8.770036e-01
  4.997247e-01
  1.262966e-01
  2.749184e-02
  8.987668e-03
  6.567338e-03
  7.259407e-03
  9.981958e-03
  1.336274e-02
  1.722555e-02
  2.275489e-02
  3.698880e-02
  9.545439e-02
  3.418977e-01
  8.234899e-01
  9.682220e-01
  9.956358e-01
  9.984345e-01
  9.976349e-01
  9.964755e-01
  9.953636e-01
  9.942014e-01
  9.926263e-01
  9.897112e-01
  9.827411e-01
  9.601968e-01
  8.709041e-01
  5.674055e-01
  1.658027e-01
  5.248123e-02
  2.796351e-02
  2.177862e-02
  1.942192e-02
  1.853885e-02
  1.909438e-02
  2.130770e-02
  2.664348e-02
  4.016716e-02
  7.160956e-02
  1.299264e-01
  2.008088e-01
  2.404684e-01
  2.275059e-01
  1.657226e-01
  9.036814e-02
  4.873376e-02
  3.547499e-02
  3.250478e-02
  3.251422e-02
  3.371149e-02
  3.598130e-02
  3.842663e-02
  3.877853e-02
  3.651841e-02
  3.630326e-02
  5.871152e-02
  1.899126e-01
  6.349681e-01
  9.095934e-01
  9.810531e-01
  9.963017e-01
  9.987774e-01
  9.967880e-01
  9.860630e-01
  9.359056e-01
  7.202807e-01
  2.527743e-01
  5.877388e-02
  1.417699e-02
  1.091751e-02
  6.529764e-03
  7.660705e-03
  1.042630e-02
  1.397278e-02
  1.882094e-02
  2.903200e-02
  6.516559e-02
  2.157812e-01
  6.394824e-01
  8.812319e-01
  9.520739e-01
  9.683078e-01
  9.700738e-01
  9.680253e-01
  9.646243e-01
  9.596172e-01
  9.505620e-01
  9.313164e-01
  8.898217e-01
  8.019287e-01
  5.954952e-01
  2.650546e-01
  8.610647e-02
  3.777621e-02
  2.628013e-02
  2.338191e-02
  2.374943e-02
  2.843879e-02
  3.902887e-02
  5.229663e-02
  6.361622e-02
  7.315945e-02
  8.324271e-02
  9.443775e-02
  1.011617e-01
  9.444383e-02
  7.675637e-02
  5.737960e-02
  4.169358e-02
  3.374050e-02
  3.149087e-02
  3.180515e-02
  3.390382e-02
  3.959610e-02
  5.261969e-02
  6.994690e-02
  7.769424e-02
  6.928808e-02
  5.237032e-02
  4.883671e-02
  1.052666e-01
  3.599490e-01
  7.668742e-01
  9.372506e-01
  9.838237e-01
  9.951357e-01
  9.964774e-01
  9.915709e-01
  9.679595e-01
  8.623386e-01
  5.022117e-01
  1.483085e-01
  3.692904e-02
  3.572230e-02
  1.346721e-02
  8.730718e-03
  9.376630e-03
  1.198887e-02
  1.576964e-02
  2.198958e-02
  3.823498e-02
  9.598557e-02
  2.800979e-01
  5.671428e-01
  7.424797e-01
  8.008998e-01
  8.131983e-01
  8.097353e-01
  7.993137e-01
  7.810904e-01
  7.449384e-01
  6.663032e-01
  5.167164e-01
  3.344308e-01
  1.892824e-01
  8.802125e-02
  4.290998e-02
  2.927036e-02
  2.592684e-02
  2.705170e-02
  3.626575e-02
  6.737549e-02
  1.326656e-01
  2.087037e-01
  2.632673e-01
  2.945678e-01
  3.063770e-01
  2.953946e-01
  2.514072e-01
  1.718063e-01
  9.020365e-02
  4.804713e-02
  3.393453e-02
  3.036858e-02
  3.036879e-02
  3.234690e-02
  3.892113e-02
  6.148683e-02
  1.260154e-01
  2.190781e-01
  2.634669e-01
  2.288144e-01
  1.399419e-01
  6.949521e-02
  6.285932e-02
  1.566810e-01
  4.608458e-01
  8.016889e-01
  9.405039e-01
  9.821136e-01
  9.930362e-01
  9.935003e-01
  9.840781e-01
  9.411817e-01
  7.716468e-01
  3.739631e-01
  1.179455e-01
  1.398502e-01
  5.383800e-02
  2.479529e-02
  1.564014e-02
  1.391777e-02
  1.513540e-02
  1.818395e-02
  2.434873e-02
  4.039009e-02
  8.284839e-02
  1.554973e-01
  2.199644e-01
  2.538777e-01
  2.629462e-01
  2.581644e-01
  2.467378e-01
  2.306019e-01
  2.074508e-01
  1.732133e-01
  1.282738e-01
  8.543723e-02
  5.561070e-02
  3.719010e-02
  2.902500e-02
  2.668669e-02
  2.766678e-02
  3.609802e-02
  7.447295e-02
  2.126770e-01
  4.840666e-01
  7.112912e-01
  8.021743e-01
  8.311778e-01
  8.365845e-01
  8.209129e-01
  7.535185e-01
  5.552210e-01
  2.526377e-01
  8.623940e-02
  4.068360e-02
  3.114514e-02
  3.051448e-02
  3.440853e-02
  5.184300e-02
  1.269685e-01
  3.814657e-01
  6.832641e-01
  7.812746e-01
  7.173438e-01
  4.576346e-01
  1.666439e-01
  6.450737e-02
  6.833112e-02
  1.796682e-01
  4.782695e-01
  7.951639e-01
  9.331257e-01
  9.778173e-01
  9.901724e-01
  9.900477e-01
  9.758831e-01
  9.172468e-01
  7.245269e-01
  3.654437e-01
  4.732848e-01
  2.301267e-01
  1.109275e-01
  5.777433e-02
  3.494232e-02
  2.438530e-02
  2.048192e-02
  2.051019e-02
  2.380324e-02
  3.164194e-02
  4.387526e-02
  5.470118e-02
  6.012330e-02
  6.084411e-02
  5.913823e-02
  5.670223e-02
  5.399843e-02
  5.041685e-02
  4.513140e-02
  3.840517e-02
  3.236930e-02
  2.860115e-02
  2.672340e-02
  2.630941e-02
  2.712434e-02
  3.149174e-02
  5.365107e-02
  1.591645e-01
  5.252299e-01
  8.355900e-01
  9.404810e-01
  9.685424e-01
  9.755829e-01
  9.766295e-01
  9.724965e-01
  9.509446e-01
  8.613202e-01
  5.683992e-01
  1.726432e-01
  5.728630e-02
  3.400268e-02
  3.123002e-02
  3.740998e-02
  7.097415e-02
  2.283005e-01
  6.950983e-01
  9.181057e-01
  9.653517e-01
  9.400707e-01
  7.860208e-01
  3.537784e-01
  9.972805e-02
  4.495417e-02
  6.410173e-02
  1.716069e-01
  4.420837e-01
  7.618637e-01
  9.159248e-01
  9.696787e-01
  9.858349e-01
  9.865432e-01
  9.711197e-01
  9.146041e-01
  7.591530e-01
  8.473442e-01
  6.867944e-01
  4.476195e-01
  2.565084e-01
  1.470065e-01
  7.902694e-02
  4.291761e-02
  2.686784e-02
  2.180012e-02
  2.110203e-02
  2.177276e-02
  2.225207e-02
  2.205157e-02
  2.165860e-02
  2.197188e-02
  2.381047e-02
  2.717763e-02
  3.052848e-02
  3.203161e-02
  3.099140e-02
  2.861635e-02
  2.697657e-02
  2.663593e-02
  2.712350e-02
  2.876688e-02
  3.611890e-02
  7.411030e-02
  2.549373e-01
  7.548897e-01
  9.495481e-01
  9.918731e-01
  9.984870e-01
  9.993487e-01
  9.994892e-01
  9.990954e-01
  9.937682e-01
  9.548513e-01
  7.672533e-01
  2.592028e-01
  7.492615e-02
  3.708614e-02
  3.182902e-02
  3.925944e-02
  8.352833e-02
  2.922351e-01
  8.113164e-01
  9.726975e-01
  9.999000e-01
  9.908766e-01
  9.015994e-01
  5.284647e-01
  1.412554e-01
  4.455021e-02
  3.133580e-02
  5.537406e-02
  1.459100e-01
  3.734120e-01
  6.988875e-01
  8.815430e-01
  9.535342e-01
  9.785121e-01
  9.832888e-01
  9.726224e-01
  9.353517e-01
  9.620887e-01
  9.259055e-01
  8.575540e-01
  7.479387e-01
  5.567866e-01
  3.132682e-01
  1.451788e-01
  5.936725e-02
  2.986124e-02
  2.125800e-02
  1.827515e-02
  1.666396e-02
  1.581903e-02
  1.653289e-02
  2.079932e-02
  3.167345e-02
  4.958537e-02
  6.622114e-02
  7.226162e-02
  6.398464e-02
  4.737480e-02
  3.494868e-02
  3.010456e-02
  2.916192e-02
  3.065881e-02
  3.957247e-02
  8.681908e-02
  3.083044e-01
  8.262628e-01
  9.750273e-01
  9.999000e-01
  9.999000e-01
  9.999000e-01
  9.999000e-01
  9.999000e-01
  9.999000e-01
  9.740491e-01
  8.211475e-01
  2.978648e-01
  8.333804e-02
  3.856880e-02
  3.189719e-02
  3.870766e-02
  8.150159e-02
  2.849448e-01
  8.030751e-01
  9.699698e-01
  9.999000e-01
  9.927193e-01
  9.095113e-01
  5.499628e-01
  1.481049e-01
  4.497270e-02
  2.408851e-02
  2.463055e-02
  4.517390e-02
  1.127842e-01
  2.849025e-01
  5.858490e-01
  8.138418e-01
  9.226121e-01
  9.655348e-01
  9.795485e-01
  9.780469e-01
  9.830628e-01
  9.814643e-01
  9.709701e-01
  9.478095e-01
  8.929336e-01
  7.592490e-01
  4.634698e-01
  1.657145e-01
  5.539232e-02
  2.685997e-02
  1.898761e-02
  1.611197e-02
  1.584704e-02
  2.075837e-02
  3.979473e-02
  9.053229e-02
  1.773475e-01
  2.512198e-01
  2.708038e-01
  2.214906e-01
  1.281840e-01
  6.124483e-02
  3.787205e-02
  3.208801e-02
  3.239979e-02
  4.060437e-02
  8.517088e-02
  2.948832e-01
  8.075793e-01
  9.679740e-01
  9.976404e-01
  9.999000e-01
  9.999000e-01
  9.999000e-01
  9.999000e-01
  9.961212e-01
  9.615397e-01
  7.856184e-01
  2.716754e-01
  7.791895e-02
  3.788554e-02
  3.192153e-02
  3.691218e-02
  6.750884e-02
  2.135833e-01
  6.668713e-01
  9.066290e-01
  9.633397e-01
  9.474256e-01
  8.152124e-01
  3.993198e-01
  1.121530e-01
  3.979897e-02
  2.293832e-02
  1.865016e-02
  2.076597e-02
  3.486766e-02
  7.890049e-02
  1.906056e-01
  4.143220e-01
  6.992953e-01
  8.667983e-01
  9.435356e-01
  9.738756e-01
  9.654165e-01
  9.858221e-01
  9.926475e-01
  9.924877e-01
  9.824745e-01
  9.427615e-01
  7.896053e-01
  3.740387e-01
  1.051843e-01
  3.712269e-02
  2.102430e-02
  1.677290e-02
  1.925111e-02
  3.884123e-02
  1.143443e-01
  3.201072e-01
  6.184172e-01
  7.752406e-01
  7.990679e-01
  6.983553e-01
  4.041736e-01
  1.368720e-01
  5.460877e-02
  3.636789e-02
  3.403476e-02
  3.951341e-02
  7.070924e-02
  2.195593e-01
  6.722183e-01
  9.087079e-01
  9.701361e-01
  9.836976e-01
  9.865798e-01
  9.859487e-01
  9.813313e-01
  9.631174e-01
  8.872742e-01
  6.187775e-01
  1.916305e-01
  6.227016e-02
  3.687978e-02
  3.495642e-02
  3.974390e-02
  5.569468e-02
  1.220895e-01
  3.528370e-01
  6.584961e-01
  7.767243e-01
  7.382998e-01
  5.124426e-01
  1.973529e-01
  6.831924e-02
  3.405007e-02
  2.403007e-02
  1.952865e-02
  1.720049e-02
  1.797125e-02
  2.579620e-02
  5.063154e-02
  1.148991e-01
  2.619492e-01
  5.308894e-01
  7.801392e-01
  9.110900e-01
  8.686874e-01
  9.533015e-01
  9.857938e-01
  9.978960e-01
  9.999000e-01
  9.885324e-01
  9.079632e-01
  5.692136e-01
  1.569954e-01
  4.721364e-02
  2.299553e-02
  1.871463e-02
  3.045898e-02
  9.414431e-02
  3.224268e-01
  7.095829e-01
  9.021381e-01
  9.615983e-01
  9.687597e-01
  9.236770e-01
  7.215363e-01
  2.581162e-01
  7.988173e-02
  4.179299e-02
  3.579790e-02
  3.799621e-02
  5.273319e-02
  1.201878e-01
  3.576681e-01
  6.799522e-01
  8.280268e-01
  8.796773e-01
  8.961292e-01
  8.922645e-01
  8.673172e-01
  8.014874e-01
  6.231681e-01
  2.982527e-01
  9.972312e-02
  4.727331e-02
  4.231260e-02
  5.462182e-02
  7.052981e-02
  8.063191e-02
  9.268761e-02
  1.369645e-01
  2.165123e-01
  2.634477e-01
  2.416227e-01
  1.606242e-01
  8.078813e-02
  4.750646e-02
  3.673447e-02
  3.097724e-02
  2.533969e-02
  2.021739e-02
  1.687933e-02
  1.596326e-02
  1.919022e-02
  3.183117e-02
  6.782873e-02
  1.603804e-01
  3.638833e-01
  6.731430e-01
  5.559656e-01
  8.111485e-01
  9.310539e-01
  9.769048e-01
  9.926083e-01
  9.853385e-01
  9.080594e-01
  5.775314e-01
  1.609009e-01
  4.825047e-02
  2.379895e-02
  2.429077e-02
  6.158798e-02
  2.291526e-01
  6.472971e-01
  9.027553e-01
  9.782352e-01
  9.973582e-01
  9.991344e-01
  9.760702e-01
  8.428321e-01
  3.600791e-01
  1.027414e-01
  4.674556e-02
  3.780778e-02
  3.792312e-02
  4.243009e-02
  6.106959e-02
  1.213964e-01
  2.315368e-01
  3.471338e-01
  4.435475e-01
  4.931249e-01
  4.792040e-01
  4.083615e-01
  3.065403e-01
  1.964272e-01
  9.889710e-02
  5.213257e-02
  4.675695e-02
  7.547182e-02
  1.509918e-01
  2.300425e-01
  2.521609e-01
  2.068479e-01
  1.316835e-01
  9.316421e-02
  8.405807e-02
  7.608326e-02
  6.372026e-02
  5.845497e-02
  6.601344e-02
  7.193068e-02
  6.588535e-02
  4.923219e-02
  3.190960e-02
  2.169410e-02
  1.684777e-02
  1.481065e-02
  1.543103e-02
  2.159132e-02
  4.232559e-02
  1.018876e-01
  2.568739e-01
  1.820458e-01
  4.183746e-01
  7.072413e-01
  8.580435e-01
  9.156758e-01
  9.033808e-01
  7.683105e-01
  3.820965e-01
  1.112847e-01
  3.935706e-02
  2.471973e-02
  4.024475e-02
  1.388770e-01
  4.808189e-01
  8.488510e-01
  9.664892e-01
  9.946406e-01
  9.999000e-01
  9.999000e-01
  9.832207e-01
  8.708508e-01
  4.046036e-01
  1.133538e-01
  4.967005e-02
  3.991177e-02
  3.941781e-02
  4.004064e-02
  4.274059e-02
  5.245046e-02
  7.140954e-02
  9.374740e-02
  1.138955e-01
  1.245822e-01
  1.207438e-01
  1.041564e-01
  8.183613e-02
  5.993934e-02
  4.365667e-02
  4.179239e-02
  7.017071e-02
  1.921376e-01
  4.950596e-01
  7.249569e-01
  7.642749e-01
  6.370386e-01
  3.283834e-01
  1.154654e-01
  5.702385e-02
  4.754412e-02
  6.029951e-02
  1.108530e-01
  1.969846e-01
  2.499661e-01
  2.338642e-01
  1.586428e-01
  7.664858e-02
  3.597600e-02
  2.195476e-02
  1.691783e-02
  1.467266e-02
  1.419996e-02
  1.725088e-02
  3.010504e-02
  7.082821e-02
  5.124263e-02
  1.173744e-01
  2.468633e-01
  4.280386e-01
  5.698432e-01
  5.530978e-01
  3.656488e-01
  1.557505e-01
  5.846801e-02
  2.991422e-02
  3.089222e-02
  8.268388e-02
  3.066759e-01
  7.455858e-01
  9.389829e-01
  9.874279e-01
  9.982561e-01
  9.999000e-01
  9.984607e-01
  9.787065e-01
  8.587847e-01
  3.815641e-01
  1.079976e-01
  4.989581e-02
  4.178665e-02
  4.156327e-02
  4.099161e-02
  3.935944e-02
  3.789188e-02
  3.760265e-02
  3.827516e-02
  3.941848e-02
  4.005767e-02
  3.925167e-02
  3.697201e-02
  3.414162e-02
  3.201994e-02
  3.307648e-02
  4.690354e-02
  1.167025e-01
  3.980250e-01
  8.107800e-01
  9.453488e-01
  9.609878e-01
  8.965592e-01
  6.336455e-01
  1.969989e-01
  6.860495e-02
  5.531345e-02
  1.113350e-01
  3.271563e-01
  6.391258e-01
  7.702975e-01
  7.445637e-01
  5.463616e-01
  2.340395e-01
  7.541391e-02
  3.219513e-02
  2.124049e-02
  1.769190e-02
  1.601037e-02
  1.541366e-02
  1.705469e-02
  2.524656e-02
  2.450888e-02
  3.726795e-02
  6.593977e-02
  1.107001e-01
  1.508043e-01
  1.497444e-01
  1.050814e-01
  5.752317e-02
  3.295959e-02
  2.743342e-02
  5.163312e-02
  1.844211e-01
  5.885686e-01
  8.905999e-01
  9.753916e-01
  9.946759e-01
  9.988049e-01
  9.988527e-01
  9.941728e-01
  9.640297e-01
  8.089023e-01
  3.097201e-01
  9.114776e-02
  4.793340e-02
  4.309412e-02
  4.342995e-02
  4.238517e-02
  3.940810e-02
  3.547415e-02
  3.177905e-02
  2.920422e-02
  2.818067e-02
  2.842482e-02
  2.888137e-02
  2.870927e-02
  2.815479e-02
  2.850590e-02
  3.266066e-02
  5.348184e-02
  1.551213e-01
  5.490926e-01
  9.081712e-01
  9.931473e-01
  9.999000e-01
  9.611817e-01
  7.647943e-01
  2.522815e-01
  8.210638e-02
  7.426059e-02