# vtk DataFile Version 2.0
time_10.vtk
ASCII
DATASET STRUCTURED_GRID
DIMENSIONS    64    64     1
POINTS    4096 float
  0.000000e+00   0.000000e+00   0.000000e+00
  0.000000e+00   1.000000e+00   0.000000e+00
  0.000000e+00   2.000000e+00   0.000000e+00
  0.000000e+00   3.000000e+00   0.000000e+00
  0.000000e+00   4.000000e+00   0.000000e+00
  0.000000e+00   5.000000e+00   0.000000e+00
  0.000000e+00   6.000000e+00   0.000000e+00
  0.000000e+00   7.000000e+00   0.000000e+00
  0.000000e+00   8.000000e+00   0.000000e+00
  0.000000e+00   9.000000e+00   0.000000e+00
  0.000000e+00   1.000000e+01   0.000000e+00
  0.000000e+00   1.100000e+01   0.000000e+00
  0.000000e+00   1.200000e+01   0.000000e+00
  0.000000e+00   1.300000e+01   0.000000e+00
  0.000000e+00   1.400000e+01   0.000000e+00
  0.000000e+00   1.500000e+01   0.000000e+00
  0.000000e+00   1.600000e+01   0.000000e+00
  0.000000e+00   1.700000e+01   0.000000e+00
  0.000000e+00   1.800000e+01   0.000000e+00
  0.000000e+00   1.900000e+01   0.000000e+00
  0.000000e+00   2.000000e+01   0.000000e+00
  0.000000e+00   2.100000e+01   0.000000e+00
  0.000000e+00   2.200000e+01   0.000000e+00
  0.000000e+00   2.300000e+01   0.000000e+00
  0.000000e+00   2.400000e+01   0.000000e+00
  0.000000e+00   2.500000e+01   0.000000e+00
  0.000000e+00   2.600000e+01   0.000000e+00
  0.000000e+00   2.700000e+01   0.000000e+00
  0.000000e+00   2.800000e+01   0.000000e+00
  0.000000e+00   2.900000e+01   0.000000e+00
  0.000000e+00   3.000000e+01   0.000000e+00
  0.000000e+00   3.100000e+01   0.000000e+00
  0.000000e+00   3.200000e+01   0.000000e+00
  0.000000e+00   3.300000e+01   0.000000e+00
  0.000000e+00   3.400000e+01   0.000000e+00
  0.000000e+00   3.500000e+01   0.000000e+00
  0.000000e+00   3.600000e+01   0.000000e+00
  0.000000e+00   3.700000e+01   0.000000e+00
  0.000000e+00   3.800000e+01   0.000000e+00
  0.000000e+00   3.900000e+01   0.000000e+00
  0.000000e+00   4.000000e+01   0.000000e+00
  0.000000e+00   4.100000e+01   0.000000e+00
  0.000000e+00   4.200000e+01   0.000000e+00
  0.000000e+00   4.300000e+01   0.000000e+00
  0.000000e+00   4.400000e+01   0.000000e+00
  0.000000e+00   4.500000e+01   0.000000e+00
  0.000000e+00   4.600000e+01   0.000000e+00
  0.000000e+00   4.700000e+01   0.000000e+00
  0.000000e+00   4.800000e+01   0.000000e+00
  0.000000e+00   4.900000e+01   0.000000e+00
  0.000000e+00   5.000000e+01   0.000000e+00
  0.000000e+00   5.100000e+01   0.000000e+00
  0.000000e+00   5.200000e+01   0.000000e+00
  0.000000e+00   5.300000e+01   0.000000e+00
  0.000000e+00   5.400000e+01   0.000000e+00
  0.000000e+00   5.500000e+01   0.000000e+00
  0.000000e+00   5.600000e+01   0.000000e+00
  0.000000e+00   5.700000e+01   0.000000e+00
  0.000000e+00   5.800000e+01   0.000000e+00
  0.000000e+00   5.900000e+01   0.000000e+00
  0.000000e+00   6.000000e+01   0.000000e+00
  0.000000e+00   6.100000e+01   0.000000e+00
  0.000000e+00   6.200000e+01   0.000000e+00
  0.000000e+00   6.300000e+01   0.000000e+00
  1.000000e+00   0.000000e+00   0.000000e+00
  1.000000e+00   1.000000e+00   0.000000e+00
  1.000000e+00   2.000000e+00   0.000000e+00
  1.000000e+00   3.000000e+00   0.000000e+00
  1.000000e+00   4.000000e+00   0.000000e+00
  1.000000e+00   5.000000e+00   0.000000e+00
  1.000000e+00   6.000000e+00   0.000000e+00
  1.000000e+00   7.000000e+00   0.000000e+00
  1.000000e+00   8.000000e+00   0.000000e+00
  1.000000e+00   9.000000e+00   0.000000e+00
  1.000000e+00   1.000000e+01   0.000000e+00
  1.000000e+00   1.100000e+01   0.000000e+00
  1.000000e+00   1.200000e+01   0.000000e+00
  1.000000e+00   1.300000e+01   0.000000e+00
  1.000000e+00   1.400000e+01   0.000000e+00
  1.000000e+00   1.500000e+01   0.000000e+00
  1.000000e+00   1.600000e+01   0.000000e+00
  1.000000e+00   1.700000e+01   0.000000e+00
  1.000000e+00   1.800000e+01   0.000000e+00
  1.000000e+00   1.900000e+01   0.000000e+00
  1.000000e+00   2.000000e+01   0.000000e+00
  1.000000e+00   2.100000e+01   0.000000e+00
  1.000000e+00   2.200000e+01   0.000000e+00
  1.000000e+00   2.300000e+01   0.000000e+00
  1.000000e+00   2.400000e+01   0.000000e+00
  1.000000e+00   2.500000e+01   0.000000e+00
  1.000000e+00   2.600000e+01   0.000000e+00
  1.000000e+00   2.700000e+01   0.000000e+00
  1.000000e+00   2.800000e+01   0.000000e+00
  1.000000e+00   2.900000e+01   0.000000e+00
  1.000000e+00   3.000000e+01   0.000000e+00
  1.000000e+00   3.100000e+01   0.000000e+00
  1.000000e+00   3.200000e+01   0.000000e+00
  1.000000e+00   3.300000e+01   0.000000e+00
  1.000000e+00   3.400000e+01   0.000000e+00
  1.000000e+00   3.500000e+01   0.000000e+00
  1.000000e+00   3.600000e+01   0.000000e+00
  1.000000e+00   3.700000e+01   0.000000e+00
  1.000000e+00   3.800000e+01   0.000000e+00
  1.000000e+00   3.900000e+01   0.000000e+00
  1.000000e+00   4.000000e+01   0.000000e+00
  1.000000e+00   4.100000e+01   0.000000e+00
  1.000000e+00   4.200000e+01   0.000000e+00
  1.000000e+00   4.300000e+01   0.000000e+00
  1.000000e+00   4.400000e+01   0.000000e+00
  1.000000e+00   4.500000e+01   0.000000e+00
  1.000000e+00   4.600000e+01   0.000000e+00
  1.000000e+00   4.700000e+01   0.000000e+00
  1.000000e+00   4.800000e+01   0.000000e+00
  1.000000e+00   4.900000e+01   0.000000e+00
  1.000000e+00   5.000000e+01   0.000000e+00
  1.000000e+00   5.100000e+01   0.000000e+00
  1.000000e+00   5.200000e+01   0.000000e+00
  1.000000e+00   5.300000e+01   0.000000e+00
  1.000000e+00   5.400000e+01   0.000000e+00
  1.000000e+00   5.500000e+01   0.000000e+00
  1.000000e+00   5.600000e+01   0.000000e+00
  1.000000e+00   5.700000e+01   0.000000e+00
  1.000000e+00   5.800000e+01   0.000000e+00
  1.000000e+00   5.900000e+01   0.000000e+00
  1.000000e+00   6.000000e+01   0.000000e+00
  1.000000e+00   6.100000e+01   0.000000e+00
  1.000000e+00   6.200000e+01   0.000000e+00
  1.000000e+00   6.300000e+01   0.000000e+00
  2.000000e+00   0.000000e+00   0.000000e+00
  2.000000e+00   1.000000e+00   0.000000e+00
  2.000000e+00   2.000000e+00   0.000000e+00
  2.000000e+00   3.000000e+00   0.000000e+00
  2.000000e+00   4.000000e+00   0.000000e+00
  2.000000e+00   5.000000e+00   0.000000e+00
  2.000000e+00   6.000000e+00   0.000000e+00
  2.000000e+00   7.000000e+00   0.000000e+00
  2.000000e+00   8.000000e+00   0.000000e+00
  2.000000e+00   9.000000e+00   0.000000e+00
  2.000000e+00   1.000000e+01   0.000000e+00
  2.000000e+00   1.100000e+01   0.000000e+00
  2.000000e+00   1.200000e+01   0.000000e+00
  2.000000e+00   1.300000e+01   0.000000e+00
  2.000000e+00   1.400000e+01   0.000000e+00
  2.000000e+00   1.500000e+01   0.000000e+00
  2.000000e+00   1.600000e+01   0.000000e+00
  2.000000e+00   1.700000e+01   0.000000e+00
  2.000000e+00   1.800000e+01   0.000000e+00
  2.000000e+00   1.900000e+01   0.000000e+00
  2.000000e+00   2.000000e+01   0.000000e+00
  2.000000e+00   2.100000e+01   0.000000e+00
  2.000000e+00   2.200000e+01   0.000000e+00
  2.000000e+00   2.300000e+01   0.000000e+00
  2.000000e+00   2.400000e+01   0.000000e+00
  2.000000e+00   2.500000e+01   0.000000e+00
  2.000000e+00   2.600000e+01   0.000000e+00
  2.000000e+00   2.700000e+01   0.000000e+00
  2.000000e+00   2.800000e+01   0.000000e+00
  2.000000e+00   2.900000e+01   0.000000e+00
  2.000000e+00   3.000000e+01   0.000000e+00
  2.000000e+00   3.100000e+01   0.000000e+00
  2.000000e+00   3.200000e+01   0.000000e+00
  2.000000e+00   3.300000e+01   0.000000e+00
  2.000000e+00   3.400000e+01   0.000000e+00
  2.000000e+00   3.500000e+01   0.000000e+00
  2.000000e+00   3.600000e+01   0.000000e+00
  2.000000e+00   3.700000e+01   0.000000e+00
  2.000000e+00   3.800000e+01   0.000000e+00
  2.000000e+00   3.900000e+01   0.000000e+00
  2.000000e+00   4.000000e+01   0.000000e+00
  2.000000e+00   4.100000e+01   0.000000e+00
  2.000000e+00   4.200000e+01   0.000000e+00
  2.000000e+00   4.300000e+01   0.000000e+00
  2.000000e+00   4.400000e+01   0.000000e+00
  2.000000e+00   4.500000e+01   0.000000e+00
  2.000000e+00   4.600000e+01   0.000000e+00
  2.000000e+00   4.700000e+01   0.000000e+00
  2.000000e+00   4.800000e+01   0.000000e+00
  2.000000e+00   4.900000e+01   0.000000e+00
  2.000000e+00   5.000000e+01   0.000000e+00
  2.000000e+00   5.100000e+01   0.000000e+00
  2.000000e+00   5.200000e+01   0.000000e+00
  2.000000e+00   5.300000e+01   0.000000e+00
  2.000000e+00   5.400000e+01   0.000000e+00
  2.000000e+00   5.500000e+01   0.000000e+00
  2.000000e+00   5.600000e+01   0.000000e+00
  2.000000e+00   5.700000e+01   0.000000e+00
  2.000000e+00   5.800000e+01   0.000000e+00
  2.000000e+00   5.900000e+01   0.000000e+00
  2.000000e+00   6.000000e+01   0.000000e+00
  2.000000e+00   6.100000e+01   0.000000e+00
  2.000000e+00   6.200000e+01   0.000000e+00
  2.000000e+00   6.300000e+01   0.000000e+00
  3.000000e+00   0.000000e+00   0.000000e+00
  3.000000e+00   1.000000e+00   0.000000e+00
  3.000000e+00   2.000000e+00   0.000000e+00
  3.000000e+00   3.000000e+00   0.000000e+00
  3.000000e+00   4.000000e+00   0.000000e+00
  3.000000e+00   5.000000e+00   0.000000e+00
  3.000000e+00   6.000000e+00   0.000000e+00
  3.000000e+00   7.000000e+00   0.000000e+00
  3.000000e+00   8.000000e+00   0.000000e+00
  3.000000e+00   9.000000e+00   0.000000e+00
  3.000000e+00   1.000000e+01   0.000000e+00
  3.000000e+00   1.100000e+01   0.000000e+00
  3.000000e+00   1.200000e+01   0.000000e+00
  3.000000e+00   1.300000e+01   0.000000e+00
  3.000000e+00   1.400000e+01   0.000000e+00
  3.000000e+00   1.500000e+01   0.000000e+00
  3.000000e+00   1.600000e+01   0.000000e+00
  3.000000e+00   1.700000e+01   0.000000e+00
  3.000000e+00   1.800000e+01   0.000000e+00
  3.000000e+00   1.900000e+01   0.000000e+00
  3.000000e+00   2.000000e+01   0.000000e+00
  3.000000e+00   2.100000e+01   0.000000e+00
  3.000000e+00   2.200000e+01   0.000000e+00
  3.000000e+00   2.300000e+01   0.000000e+00
  3.000000e+00   2.400000e+01   0.000000e+00
  3.000000e+00   2.500000e+01   0.000000e+00
  3.000000e+00   2.600000e+01   0.000000e+00
[...]
POINT_DATA  4096
SCALARS CON float 1
LOOKUP_TABLE default
  5.732336e-01
  9.156270e-01
  9.911834e-01
  9.999000e-01
  9.999000e-01
  9.969077e-01
  9.667126e-01
  8.041103e-01
  2.843365e-01
  7.344838e-02
  2.747979e-02
  1.753671e-02
  1.530122e-02
  1.581056e-02
  1.807154e-02
  2.143267e-02
  2.517765e-02
  2.872479e-02
  3.170094e-02
  3.366835e-02
  3.387673e-02
  3.180278e-02
  2.785017e-02
  2.379169e-02
  2.369406e-02
  3.886701e-02
  1.111844e-01
  3.465661e-01
  7.194762e-01
  9.083977e-01
  9.669978e-01
  9.789365e-01
  9.704335e-01
  9.415048e-01
  8.882658e-01
  8.138896e-01
  7.079798e-01
  5.163294e-01
  2.821829e-01
  1.232350e-01
  5.435628e-02
  3.662506e-02
  3.631605e-02
  4.449738e-02
  6.264137e-02
  8.456713e-02
  8.842820e-02
  6.979260e-02
  4.835593e-02
  3.730400e-02
  3.643584e-02
  5.719625e-02
  1.483367e-01
  3.845254e-01
  6.514620e-01
  7.480123e-01
  6.887909e-01
  4.500587e-01
  1.799712e-01
  6.046785e-02
  2.924721e-02
  2.641185e-02
  4.679073e-02
  1.543676e-01
  4.950295e-01
  8.785810e-01
  9.783424e-01
  9.955838e-01
  9.944279e-01
  9.801269e-01
  9.171250e-01
  6.715606e-01
  2.062336e-01
  5.941631e-02
  2.899843e-02
  2.370217e-02
  2.534155e-02
  3.124112e-02
  3.989114e-02
  4.981362e-02
  6.054905e-02
  7.200959e-02
  8.313559e-02
  9.073782e-02
  9.024317e-02
  7.906066e-02
  5.942750e-02
  3.877189e-02
  2.674956e-02
  2.550100e-02
  4.423102e-02
  1.240563e-01
  3.585467e-01
  7.161309e-01
  9.038423e-01
  9.658553e-01
  9.819505e-01
  9.823076e-01
  9.754427e-01
  9.630155e-01
  9.389150e-01
  8.763369e-01
  7.096640e-01
  3.619938e-01
  1.174133e-01
  5.270047e-02
  4.739763e-02
  7.300318e-02
  1.499368e-01
  2.542462e-01
  2.708888e-01
  1.809437e-01
  8.562833e-02
  4.951083e-02
  4.903731e-02
  1.084650e-01
  3.639358e-01
  7.562945e-01
  9.177321e-01
  9.556554e-01
  9.327174e-01
  8.033689e-01
  4.354661e-01
  1.209784e-01
  3.942504e-02
  2.688921e-02
  4.307565e-02
  1.339241e-01
  2.895799e-01
  7.059735e-01
  8.974713e-01
  9.486822e-01
  9.476137e-01
  9.023206e-01
  7.543091e-01
  4.052041e-01
  1.366521e-01
  7.081889e-02
  6.441417e-02
  7.392046e-02
  9.625383e-02
  1.330647e-01
  1.759039e-01
  2.168164e-01
  2.561413e-01
  2.963427e-01
  3.348304e-01
  3.592648e-01
  3.510593e-01
  2.979643e-01
  2.043521e-01
  1.010822e-01
  4.496599e-02
  2.645148e-02
  2.504185e-02
  4.446144e-02
  1.217900e-01
  3.434975e-01
  6.979767e-01
  8.961143e-01
  9.651937e-01
  9.862737e-01
  9.925229e-01
  9.938472e-01
  9.911183e-01
  9.769500e-01
  9.136204e-01
  6.741558e-01
  2.233679e-01
  7.959221e-02
  6.809104e-02
  1.415183e-01
  4.086258e-01
  7.133737e-01
  7.464207e-01
  5.071542e-01
  1.752707e-01
  7.096419e-02
  6.643639e-02
  1.805461e-01
  6.201607e-01
  9.089153e-01
  9.831586e-01
  9.967369e-01
  9.884398e-01
  9.300985e-01
  6.837856e-01
  1.989894e-01
  5.145537e-02
  2.524522e-02
  3.234113e-02
  8.320455e-02
  1.154757e-01
  3.172072e-01
  5.850609e-01
  7.208373e-01
  7.228983e-01
  6.056474e-01
  3.779083e-01
  1.984015e-01
  1.589485e-01
  2.034116e-01
  2.585610e-01
  3.226739e-01
  4.242253e-01
  5.646056e-01
  6.850302e-01
  7.579534e-01
  8.002688e-01
  8.284515e-01
  8.488245e-01
  8.601972e-01
  8.548942e-01
  8.091009e-01
  6.484046e-01
  3.114487e-01
  9.714324e-02
  3.719039e-02
  2.266874e-02
  2.273267e-02
  4.125701e-02
  1.122983e-01
  3.177938e-01
  6.702492e-01
  8.833886e-01
  9.620689e-01
  9.883310e-01
  9.974485e-01
  9.999000e-01
  9.985139e-01
  9.679132e-01
  8.061596e-01
  3.033323e-01
  1.016193e-01
  8.572095e-02
  2.042760e-01
  6.201159e-01
  8.969434e-01
  9.187359e-01
  7.145722e-01
  2.463738e-01
  8.646062e-02
  7.788191e-02
  2.281616e-01
  7.413558e-01
  9.509916e-01
  9.946646e-01
  9.999000e-01
  9.970707e-01
  9.639127e-01
  7.942753e-01
  2.695182e-01
  6.277394e-02
  2.263404e-02
  2.177763e-02
  4.180389e-02
  4.117086e-02
  8.835394e-02
  1.577750e-01
  2.057935e-01
  2.093417e-01
  1.754756e-01
  1.402681e-01
  1.857372e-01
  4.107490e-01
  6.662297e-01
  7.852696e-01
  8.340503e-01
  8.691576e-01
  9.049134e-01
  9.337049e-01
  9.520152e-01
  9.634787e-01
  9.715593e-01
  9.776610e-01
  9.815617e-01
  9.814306e-01
  9.681417e-01
  8.946929e-01
  6.128417e-01
  1.797327e-01
  5.361437e-02
  2.544539e-02
  1.857594e-02
  2.003317e-02
  3.695237e-02
  1.001005e-01
  2.838254e-01
  6.230733e-01
  8.554889e-01
  9.501124e-01
  9.841897e-01
  9.961735e-01
  9.964759e-01
  9.658906e-01
  8.038316e-01
  3.039830e-01
  1.019930e-01
  8.251281e-02
  1.833210e-01
  5.472078e-01
  8.363965e-01
  8.588531e-01
  6.332796e-01
  2.141623e-01
  7.881292e-02
  7.532594e-02
  2.291438e-01
  7.503164e-01
  9.532323e-01
  9.943421e-01
  9.999000e-01
  9.974438e-01
  9.734112e-01
  8.443334e-01
  3.569351e-01
  7.964026e-02
  2.127030e-02
  1.449296e-02
  2.106214e-02
  1.825845e-02
  2.908979e-02
  4.306123e-02
  5.361669e-02
  5.783255e-02
  6.319408e-02
  1.042802e-01
  3.019752e-01
  7.374450e-01
  9.170371e-01
  9.631423e-01
  9.739741e-01
  9.782398e-01
  9.824263e-01
  9.865240e-01
  9.900038e-01
  9.930793e-01
  9.959547e-01
  9.984521e-01
  9.999000e-01
  9.999000e-01
  9.962387e-01
  9.521990e-01
  7.353879e-01
  2.261443e-01
  6.338248e-02
  2.797558e-02
  1.886466e-02
  1.588572e-02
  1.783924e-02
  3.251754e-02
  8.497412e-02
  2.337860e-01
  5.277734e-01
  7.871422e-01
  9.082382e-01
  9.522238e-01
  9.534806e-01
  8.928597e-01
  6.559691e-01
  2.222199e-01
  8.093052e-02
  6.365931e-02
  1.073250e-01
  2.591863e-01
  4.683325e-01
  4.914317e-01
  2.991628e-01
  1.168414e-01
  5.661709e-02
  6.171740e-02
  1.889622e-01
  6.695126e-01
  9.304572e-01
  9.885959e-01
  9.983836e-01
  9.966782e-01
  9.788232e-01
  8.857366e-01
  4.980364e-01
  1.148723e-01
  2.436133e-02
  1.037081e-02
  1.194414e-02
  1.063577e-02
  1.474800e-02
  1.925252e-02
  2.358412e-02
  2.916453e-02
  4.536634e-02
  1.171117e-01
  4.116200e-01
  8.613503e-01
  9.793904e-01
  9.996075e-01
  9.999000e-01
  9.972736e-01
  9.945596e-01
  9.926449e-01
  9.919807e-01
  9.926123e-01
  9.941806e-01
  9.960854e-01
  9.974894e-01
  9.967682e-01
  9.863786e-01
  9.258765e-01
  6.717338e-01
  2.005930e-01
  5.896369e-02
  2.809754e-02
  1.988954e-02
  1.640117e-02
  1.495844e-02
  1.702200e-02
  2.874875e-02
  6.677183e-02
  1.648667e-01
  3.556679e-01
  6.036044e-01
  7.377714e-01
  7.437864e-01
  6.076102e-01
  3.172711e-01
  1.135785e-01
  5.535986e-02
  4.772598e-02
  6.137709e-02
  9.997752e-02
  1.512017e-01
  1.571037e-01
  1.083929e-01
  6.151250e-02
  4.104488e-02
  4.620685e-02
  1.280694e-01
  4.860420e-01
  8.715053e-01
  9.748304e-01
  9.949236e-01
  9.958008e-01
  9.839159e-01
  9.246615e-01
  6.650130e-01
  1.851046e-01
  3.801091e-02
  1.015912e-02
  7.812892e-03
  7.802271e-03
  1.022682e-02
  1.328966e-02
  1.698948e-02
  2.315987e-02
  4.073398e-02
  1.132434e-01
  4.063498e-01
  8.605903e-01
  9.802376e-01
  9.999000e-01
  9.983834e-01
  9.916240e-01
  9.823551e-01
  9.726470e-01
  9.657893e-01
  9.630828e-01
  9.635371e-01
  9.650641e-01
  9.645248e-01
  9.548800e-01
  9.140400e-01
  7.733316e-01
  4.152776e-01
  1.237019e-01
  4.484024e-02
  2.662220e-02
  2.151535e-02
  1.973343e-02
  1.943083e-02
  2.009994e-02
  2.285172e-02
  3.164706e-02
  5.462186e-02
  1.023933e-01
  1.738675e-01
  2.272714e-01
  2.301110e-01
  1.782525e-01
  1.014207e-01
  5.441466e-02
  3.986825e-02
  3.871950e-02
  4.357577e-02
  5.375799e-02
  6.618989e-02
  7.004697e-02
  6.103388e-02
  4.770526e-02
  3.713648e-02
  3.648225e-02
  7.708706e-02
  2.844817e-01
  7.499037e-01
  9.423673e-01
  9.869838e-01
  9.941308e-01
  9.879186e-01
  9.536941e-01
  7.982335e-01
  3.355714e-01
  8.219014e-02
  1.951552e-02
  7.905104e-03
  9.460889e-03
  8.826854e-03
  1.077221e-02
  1.404170e-02
  1.955372e-02
  3.304480e-02
  8.230521e-02
  2.797215e-01
  7.263483e-01
  9.156936e-01
  9.599454e-01
  9.598827e-01
  9.402640e-01
  9.031166e-01
  8.568278e-01
  8.215326e-01
  8.045065e-01
  8.006936e-01
  8.008491e-01
  7.925419e-01
  7.517837e-01
  6.253241e-01
  3.754006e-01
  1.582604e-01
  6.078410e-02
  3.315447e-02
  2.649270e-02
  2.686977e-02
  3.295533e-02
  4.369686e-02
  5.371263e-02
  6.056658e-02
  6.585622e-02
  7.239287e-02
  8.179597e-02
  9.114038e-02
  9.080413e-02
  7.812295e-02
  6.035578e-02
  4.409420e-02
  3.529635e-02
  3.308898e-02
  3.413635e-02
  3.736805e-02
  4.416853e-02
  5.738511e-02
  7.491376e-02
  8.350548e-02
  7.554707e-02
  5.603425e-02
  3.983965e-02
  4.992383e-02
  1.501677e-01
  5.120762e-01
  8.567857e-01
  9.640403e-01
  9.885554e-01
  9.898417e-01
  9.736663e-01
  8.984474e-01
  6.162465e-01
  2.170611e-01
  6.065633e-02
  1.881440e-02
  2.517908e-02
  1.258776e-02
  1.027146e-02
  1.180175e-02
  1.575551e-02
  2.399665e-02
  4.738613e-02
  1.294626e-01
  3.675714e-01
  6.448715e-01
  7.581072e-01
  7.621249e-01
  6.955529e-01
  5.563943e-01
  3.948056e-01
  2.972764e-01
  2.598587e-01
  2.520777e-01
  2.531533e-01
  2.482316e-01
  2.243971e-01
  1.734826e-01
  1.058822e-01
  5.700425e-02
  3.529227e-02
  2.922274e-02
  3.182382e-02
  4.817460e-02
  9.274655e-02
  1.637423e-01
  2.244111e-01
  2.602258e-01
  2.773919e-01
  2.822509e-01
  2.734185e-01
  2.410498e-01
  1.766517e-01
  1.002490e-01
  5.351471e-02
  3.570525e-02
  3.075742e-02
  3.041355e-02
  3.214465e-02
  3.746256e-02
  5.510111e-02
  1.074942e-01
  1.982029e-01
  2.574154e-01
  2.420938e-01
  1.636290e-01
  8.001292e-02
  4.652429e-02
  7.523223e-02
  2.466131e-01
  6.466936e-01
  8.917506e-01
  9.678034e-01
  9.861654e-01
  9.840130e-01
  9.562324e-01
  8.435098e-01
  5.323200e-01
  2.066240e-01
  6.931552e-02
  9.593808e-02
  3.660411e-02
  1.706967e-02
  1.213863e-02
  1.301582e-02
  1.727333e-02
  2.657802e-02
  4.996131e-02
  1.058863e-01
  1.806049e-01
  2.220910e-01
  2.182251e-01
  1.821949e-01
  1.318420e-01
  8.839270e-02
  6.574491e-02
  5.953260e-02
  6.173612e-02
  6.600396e-02
  6.725532e-02
  6.275780e-02
  5.282059e-02
  4.084266e-02
  3.242483e-02
  2.924618e-02
  3.208273e-02
  5.077725e-02
  1.249594e-01
  3.271467e-01
  6.007068e-01
  7.535725e-01
  8.069811e-01
  8.227646e-01
  8.240086e-01
  8.098656e-01
  7.544990e-01
  5.912285e-01
  3.083700e-01
  1.138708e-01
  4.818264e-02
  3.233265e-02
  2.987638e-02
  3.234396e-02
  4.518019e-02
  1.018626e-01
  3.063803e-01
  6.244625e-01
  7.677924e-01
  7.463589e-01
  5.490583e-01
  2.353340e-01
  7.727689e-02
  4.778359e-02
  9.931885e-02
  3.068214e-01
  6.801487e-01
  8.922947e-01
  9.637723e-01
  9.827408e-01
  9.796511e-01
  9.472895e-01
  8.363322e-01
  5.724359e-01
  2.558692e-01
  3.451692e-01
  1.422216e-01
  5.652943e-02
  2.579903e-02
  1.653049e-02
  1.562546e-02
  1.857747e-02
  2.493986e-02
  3.602818e-02
  4.872961e-02
  5.459392e-02
  5.119714e-02
  4.173772e-02
  3.099482e-02
  2.368168e-02
  2.276724e-02
  2.858938e-02
  3.931011e-02
  4.915371e-02
  5.068716e-02
  4.412976e-02
  3.636596e-02
  3.135575e-02
  2.914755e-02
  3.022948e-02
  4.099138e-02
  9.474141e-02
  3.133270e-01
  7.155663e-01
  9.002489e-01
  9.551931e-01
  9.694714e-01
  9.727600e-01
  9.727781e-01
  9.692208e-01
  9.531425e-01
  8.905627e-01
  6.822445e-01
  2.720078e-01
  8.332802e-02
  3.880887e-02
  3.086502e-02
  3.429221e-02
  6.007107e-02
  1.869388e-01
  6.177617e-01
  8.905676e-01
  9.606608e-01
  9.537697e-01
  8.565032e-01
  5.278232e-01
  1.480796e-01
  4.858255e-02
  4.423337e-02
  1.069745e-01
  3.072969e-01
  6.577876e-01
  8.747666e-01
  9.555988e-01
  9.796705e-01
  9.791983e-01
  9.528698e-01
  8.694097e-01
  6.663234e-01
  7.592075e-01
  4.797973e-01
  2.259061e-01
  1.012444e-01
  5.080786e-02
  3.155639e-02
  2.419023e-02
  2.216779e-02
  2.238272e-02
  2.305710e-02
  2.238586e-02
  1.997376e-02
  1.686823e-02
  1.482554e-02
  1.635962e-02
  2.593647e-02
  5.105535e-02
  9.239467e-02
  1.276601e-01
  1.229103e-01
  8.443163e-02
  5.036183e-02
  3.568230e-02
  3.117107e-02
  3.315605e-02
  5.251709e-02
  1.534527e-01
  5.436769e-01
  8.884583e-01
  9.786432e-01
  9.958835e-01
  9.981790e-01
  9.982267e-01
  9.981349e-01
  9.978070e-01
  9.946695e-01
  9.737547e-01
  8.674779e-01
  4.813028e-01
  1.341313e-01
  4.816693e-02
  3.254535e-02
  3.615907e-02
  7.190352e-02
  2.500469e-01
  7.690589e-01
  9.614553e-01
  9.999000e-01
  9.985036e-01
  9.498765e-01
  7.233494e-01
  2.143340e-01
  5.775918e-02
  2.915836e-02
  3.927652e-02
  9.799114e-02
  2.714089e-01
  6.001489e-01
  8.419166e-01
  9.424183e-01
  9.756242e-01
  9.805360e-01
  9.638411e-01
  9.067098e-01
  9.345939e-01
  8.430769e-01
  6.608010e-01
  3.990720e-01
  2.221543e-01
  1.294666e-01
  7.633107e-02
  4.715552e-02
  3.034292e-02
  2.211766e-02
  1.816237e-02
  1.551024e-02
  1.378026e-02
  1.459548e-02
  2.354330e-02
  5.864339e-02
  1.605572e-01
  3.279730e-01
  4.570755e-01
  4.230721e-01
  2.506849e-01
  9.986563e-02
  4.796731e-02
  3.460059e-02
  3.516052e-02
  5.794860e-02
  1.801928e-01
  6.328557e-01
  9.269112e-01
  9.917991e-01
  9.999000e-01
  9.999000e-01
  9.999000e-01
  9.999000e-01
  9.999000e-01
  9.999000e-01
  9.907186e-01
  9.185654e-01
  5.953646e-01
  1.658012e-01
  5.405655e-02
  3.356413e-02
  3.632829e-02
  7.226444e-02
  2.522318e-01
  7.732097e-01
  9.627113e-01
  9.999000e-01
  9.999000e-01
  9.585268e-01
  7.506549e-01
  2.285472e-01
  6.091551e-02
  2.639288e-02
  2.193543e-02
  3.389756e-02
  8.178758e-02
  2.210081e-01
  5.098752e-01
  7.860364e-01
  9.165442e-01
  9.640630e-01
  9.772834e-01
  9.699809e-01
  9.665745e-01
  9.530415e-01
  9.115514e-01
  8.301397e-01
  7.069321e-01
  5.178559e-01
  3.171439e-01
  1.759491e-01
  8.098828e-02
  3.674779e-02
  2.175702e-02
  1.627561e-02
  1.443049e-02
  1.852525e-02
  4.505811e-02
  1.589394e-01
  4.842432e-01
  7.833829e-01
  8.808649e-01
  8.470937e-01
  6.175808e-01
  2.055938e-01
  6.851007e-02
  3.821257e-02
  3.497142e-02
  5.269208e-02
  1.510665e-01
  5.350661e-01
  8.852337e-01
  9.779994e-01
  9.961686e-01
  9.990350e-01
  9.995371e-01
  9.998013e-01
  9.999000e-01
  9.984525e-01
  9.826080e-01
  8.926748e-01
  5.350221e-01
  1.492212e-01
  5.146952e-02
  3.349979e-02
  3.527843e-02
  6.165378e-02
  1.934072e-01
  6.353102e-01
  8.993755e-01
  9.667772e-01
  9.671578e-01
  8.979509e-01
  6.218853e-01
  1.819450e-01
  5.424578e-02
  2.644556e-02
  1.958253e-02
  1.939707e-02
  2.894216e-02
  6.437484e-02
  1.648982e-01
  3.858071e-01
  6.821522e-01
  8.526560e-01
  9.298334e-01
  9.597365e-01
  9.143924e-01
  9.512585e-01
  9.633154e-01
  9.570198e-01
  9.346213e-01
  8.870585e-01
  7.930806e-01
  5.853037e-01
  2.647548e-01
  8.400069e-02
  3.257686e-02
  1.888459e-02
  1.605470e-02
  2.662739e-02
  9.090559e-02
  3.561438e-01
  7.853022e-01
  9.484158e-01
  9.853909e-01
  9.622741e-01
  7.980952e-01
  2.887737e-01
  8.383607e-02
  3.989401e-02
  3.315281e-02
  4.189662e-02
  9.337905e-02
  3.065245e-01
  7.117143e-01
  9.015820e-01
  9.584138e-01
  9.740510e-01
  9.786613e-01
  9.799090e-01
  9.782709e-01
  9.680354e-01
  9.230744e-01
  7.524753e-01
  3.347468e-01
  1.001283e-01
  4.446947e-02
  3.574982e-02
  3.847985e-02
  5.223395e-02
  1.125394e-01
  3.321338e-01
  6.542989e-01
  7.948538e-01
  7.961540e-01
  6.559765e-01
  3.272963e-01
  1.068114e-01
  4.539540e-02
  2.925302e-02
  2.268081e-02
  1.897956e-02
  1.846692e-02
  2.476744e-02
  4.770257e-02
  1.090141e-01
  2.429954e-01
  4.709573e-01
  7.042449e-01
  8.383550e-01
  6.617583e-01
  8.327425e-01
  9.281518e-01
  9.692810e-01
  9.827746e-01
  9.815777e-01
  9.610879e-01
  8.772166e-01
  5.924977e-01
  1.756882e-01
  5.117176e-02
  2.273339e-02
  1.890208e-02
  4.222126e-02
  1.730513e-01
  6.143326e-01
  9.105086e-01
  9.871160e-01
  9.999000e-01
  9.755655e-01
  8.224222e-01
  2.989330e-01
  8.358742e-02
  3.870689e-02
  3.135645e-02
  3.388715e-02
  5.197109e-02
  1.253729e-01
  3.318175e-01
  6.153169e-01
  7.716100e-01
  8.286838e-01
  8.488202e-01
  8.536930e-01
  8.445553e-01
  8.054559e-01
  6.816286e-01
  3.991296e-01
  1.491041e-01
  6.102495e-02
  4.608573e-02
  5.585704e-02
  6.941955e-02
  7.682564e-02
  8.624365e-02
  1.293227e-01
  2.171476e-01
  2.826662e-01
  2.838275e-01
  2.174250e-01
  1.231747e-01
  7.156539e-02
  5.530711e-02
  4.549518e-02
  3.455478e-02
  2.525212e-02
  1.975501e-02
  1.813292e-02
  2.128581e-02
  3.328679e-02
  6.292538e-02
  1.242679e-01
  2.322763e-01
  4.169104e-01
  2.176347e-01
  4.501912e-01
  7.456988e-01
  9.110438e-01
  9.746296e-01
  9.962712e-01
  9.977698e-01
  9.607660e-01
  7.694998e-01
  2.517511e-01
  6.712911e-02
  2.637942e-02
  2.477463e-02
  7.324565e-02
  3.040728e-01
  7.840618e-01
  9.560971e-01
  9.935566e-01
  9.942844e-01
  9.542381e-01
  7.564685e-01
  2.456383e-01
  7.047447e-02
  3.645373e-02
  3.145698e-02
  3.161503e-02
  3.555107e-02
  5.215564e-02
  9.900136e-02
  1.774759e-01
  2.506984e-01
  3.026991e-01
  3.339681e-01
  3.438461e-01
  3.285655e-01
  2.842591e-01
  2.103742e-01
  1.211044e-01
  6.345425e-02
  5.231171e-02
  8.369864e-02
  1.605777e-01
  2.307889e-01
  2.422702e-01
  1.906638e-01
  1.192501e-01
  8.966822e-02
  8.804435e-02
  8.774624e-02
  8.447962e-02
  9.286677e-02
  1.207657e-01
  1.413173e-01
  1.255295e-01
  8.428776e-02
  4.746320e-02
  2.792351e-02
  2.036444e-02
  1.803755e-02
  1.871874e-02
  2.303884e-02
  3.364164e-02
  5.601667e-02
  1.056841e-01
  5.482583e-02
  1.350593e-01
  3.486729e-01
  6.971087e-01
  8.969334e-01
  9.691664e-01
  9.871243e-01
  9.557460e-01
  7.686011e-01
  2.548834e-01
  6.881692e-02
  2.941460e-02
  4.009447e-02
  1.443202e-01
  5.239983e-01
  8.801266e-01
  9.737164e-01
  9.901605e-01
  9.759668e-01
  8.905157e-01
  5.727545e-01
  1.634969e-01
  5.529257e-02
  3.865038e-02
  3.822138e-02
  3.718006e-02
  3.462170e-02
  3.460944e-02
  4.075914e-02
  5.327605e-02
  6.668038e-02
  7.748486e-02
  8.474169e-02
  8.760030e-02
  8.486897e-02
  7.587076e-02
  6.164843e-02
  4.722266e-02
  4.532029e-02
  8.113623e-02
  2.316831e-01
  5.380689e-01
  7.343131e-01
  7.518222e-01
  6.002298e-01
  2.906055e-01
  1.041246e-01
  5.614253e-02
  5.442622e-02
  8.826933e-02
  2.041474e-01
  3.832127e-01
  4.969126e-01
  4.520527e-01
  2.897593e-01
  1.312097e-01
  5.190224e-02
  2.750607e-02
  2.069081e-02
  1.853971e-02
  1.777939e-02
  1.794907e-02
  2.008726e-02
  2.832384e-02
  2.022148e-02
  3.945583e-02
  1.078275e-01
  2.992666e-01
  6.224178e-01
  8.179342e-01
  8.767823e-01
  8.259165e-01
  5.713314e-01
  1.786942e-01
  5.607912e-02
  3.666923e-02
  8.317170e-02
  2.996475e-01
  7.453193e-01
  9.372815e-01
  9.804834e-01
  9.797945e-01
  9.338121e-01
  7.416365e-01
  3.116429e-01
  9.356275e-02
  5.402826e-02
  6.391886e-02
  7.397614e-02
  6.684971e-02
  4.908294e-02
  3.670497e-02
  3.142920e-02
  3.022866e-02
  3.084172e-02
  3.223045e-02
  3.389246e-02
  3.518860e-02
  3.545445e-02
  3.444590e-02
  3.292106e-02
  3.423096e-02
  5.197203e-02
  1.462013e-01
  5.045260e-01
  8.485261e-01
  9.512687e-01
  9.572132e-01
  8.793928e-01
  5.881331e-01
  1.777918e-01
  6.576250e-02
  6.494175e-02
  1.659039e-01
  5.207109e-01
  8.094497e-01
  8.936739e-01
  8.737168e-01
  7.321200e-01
  3.784254e-01
  1.134683e-01
  4.166278e-02
  2.586869e-02
  2.236695e-02
  2.125694e-02
  2.004452e-02
  1.821746e-02
  1.694431e-02
  2.041817e-02
  2.054358e-02
  3.571692e-02
  8.628085e-02
  1.965539e-01
  3.364229e-01
  4.255007e-01
  3.746352e-01
  2.160673e-01
  8.482910e-02
  4.485086e-02
  6.573192e-02
  2.042845e-01
  5.860690e-01
  8.824422e-01
  9.666581e-01
  9.802997e-01
  9.576247e-01
  8.400296e-01
  4.706427e-01
  1.481594e-01
  6.939952e-02
  1.016648e-01
  1.910899e-01
  2.413308e-01
  2.008647e-01
  1.083790e-01
  5.417035e-02
  3.473697e-02
  2.825693e-02
  2.658888e-02
  2.775811e-02
  3.080259e-02
  3.371088e-02
  3.463193e-02
  3.324787e-02
  3.151945e-02
  3.473464e-02
  6.138517e-02
  1.994556e-01
  6.790767e-01
  9.394831e-01
  9.979796e-01
  9.999000e-01
  9.542374e-01
  7.383806e-01
  2.328994e-01
  7.826624e-02
  8.279196e-02