# vtk DataFile Version 2.0
time_10.vtk
ASCII
DATASET STRUCTURED_GRID
DIMENSIONS    64    64     1
POINTS    4096 float
  0.000000e+00   0.000000e+00   0.000000e+00
  0.000000e+00   1.000000e+00   0.000000e+00
  0.000000e+00   2.000000e+00   0.000000e+00
  0.000000e+00   3.000000e+00   0.000000e+00
  0.000000e+00   4.000000e+00   0.000000e+00
  0.000000e+00   5.000000e+00   0.000000e+00
  0.000000e+00   6.000000e+00   0.000000e+00
  0.000000e+00   7.000000e+00   0.000000e+00
  0.000000e+00   8.000000e+00   0.000000e+00
  0.000000e+00   9.000000e+00   0.000000e+00
  0.000000e+00   1.000000e+01   0.000000e+00
  0.000000e+00   1.100000e+01   0.000000e+00
  0.000000e+00   1.200000e+01   0.000000e+00
  0.000000e+00   1.300000e+01   0.000000e+00
  0.000000e+00   1.400000e+01   0.000000e+00
  0.000000e+00   1.500000e+01   0.000000e+00
  0.000000e+00   1.600000e+01   0.000000e+00
  0.000000e+00   1.700000e+01   0.000000e+00
  0.000000e+00   1.800000e+01   0.000000e+00
  0.000000e+00   1.900000e+01   0.000000e+00
  0.000000e+00   2.000000e+01   0.000000e+00
  0.000000e+00   2.100000e+01   0.000000e+00
  0.000000e+00   2.200000e+01   0.000000e+00
  0.000000e+00   2.300000e+01   0.000000e+00
  0.000000e+00   2.400000e+01   0.000000e+00
  0.000000e+00   2.500000e+01   0.000000e+00
  0.000000e+00   2.600000e+01   0.000000e+00
  0.000000e+00   2.700000e+01   0.000000e+00
  0.000000e+00   2.800000e+01   0.000000e+00
  0.000000e+00   2.900000e+01   0.000000e+00
  0.000000e+00   3.000000e+01   0.000000e+00
  0.000000e+00   3.100000e+01   0.000000e+00
  0.000000e+00   3.200000e+01   0.000000e+00
  0.000000e+00   3.300000e+01   0.000000e+00
  0.000000e+00   3.400000e+01   0.000000e+00
  0.000000e+00   3.500000e+01   0.000000e+00
  0.000000e+00   3.600000e+01   0.000000e+00
  0.000000e+00   3.700000e+01   0.000000e+00
  0.000000e+00   3.800000e+01   0.000000e+00
  0.000000e+00   3.900000e+01   0.000000e+00
  0.000000e+00   4.000000e+01   0.000000e+00
  0.000000e+00   4.100000e+01   0.000000e+00
  0.000000e+00   4.200000e+01   0.000000e+00
  0.000000e+00   4.300000e+01   0.000000e+00
  0.000000e+00   4.400000e+01   0.000000e+00
  0.000000e+00   4.500000e+01   0.000000e+00
  0.000000e+00   4.600000e+01   0.000000e+00
  0.000000e+00   4.700000e+01   0.000000e+00
  0.000000e+00   4.800000e+01   0.000000e+00
  0.000000e+00   4.900000e+01   0.000000e+00
  0.000000e+00   5.000000e+01   0.000000e+00
  0.000000e+00   5.100000e+01   0.000000e+00
  0.000000e+00   5.200000e+01   0.000000e+00
  0.000000e+00   5.300000e+01   0.000000e+00
  0.000000e+00   5.400000e+01   0.000000e+00
  0.000000e+00   5.500000e+01   0.000000e+00
  0.000000e+00   5.600000e+01   0.000000e+00
  0.000000e+00   5.700000e+01   0.000000e+00
  0.000000e+00   5.800000e+01   0.000000e+00
  0.000000e+00   5.900000e+01   0.000000e+00
  0.000000e+00   6.000000e+01   0.000000e+00
  0.000000e+00   6.100000e+01   0.000000e+00
  0.000000e+00   6.200000e+01   0.000000e+00
  0.000000e+00   6.300000e+01   0.000000e+00
  1.000000e+00   0.000000e+00   0.000000e+00
  1.000000e+00   1.000000e+00   0.000000e+00
  1.000000e+00   2.000000e+00   0.000000e+00
  1.000000e+00   3.000000e+00   0.000000e+00
  1.000000e+00   4.000000e+00   0.000000e+00
  1.000000e+00   5.000000e+00   0.000000e+00
  1.000000e+00   6.000000e+00   0.000000e+00
  1.000000e+00   7.000000e+00   0.000000e+00
  1.000000e+00   8.000000e+00   0.000000e+00
  1.000000e+00   9.000000e+00   0.000000e+00
  1.000000e+00   1.000000e+01   0.000000e+00
  1.000000e+00   1.100000e+01   0.000000e+00
  1.000000e+00   1.200000e+01   0.000000e+00
  1.000000e+00   1.300000e+01   0.000000e+00
  1.000000e+00   1.400000e+01   0.000000e+00
  1.000000e+00   1.500000e+01   0.000000e+00
  1.000000e+00   1.600000e+01   0.000000e+00
  1.000000e+00   1.700000e+01   0.000000e+00
  1.000000e+00   1.800000e+01   0.000000e+00
  1.000000e+00   1.900000e+01   0.000000e+00
  1.000000e+00   2.000000e+01   0.000000e+00
  1.000000e+00   2.100000e+01   0.000000e+00
  1.000000e+00   2.200000e+01   0.000000e+00
  1.000000e+00   2.300000e+01   0.000000e+00
  1.000000e+00   2.400000e+01   0.000000e+00
  1.000000e+00   2.500000e+01   0.000000e+00
  1.000000e+00   2.600000e+01   0.000000e+00
  1.000000e+00   2.700000e+01   0.000000e+00
  1.000000e+00   2.800000e+01   0.000000e+00
  1.000000e+00   2.900000e+01   0.000000e+00
  1.000000e+00   3.000000e+01   0.000000e+00
  1.000000e+00   3.100000e+01   0.000000e+00
  1.000000e+00   3.200000e+01   0.000000e+00
  1.000000e+00   3.300000e+01   0.000000e+00
  1.000000e+00   3.400000e+01   0.000000e+00
  1.000000e+00   3.500000e+01   0.000000e+00
  1.000000e+00   3.600000e+01   0.000000e+00
  1.000000e+00   3.700000e+01   0.000000e+00
  1.000000e+00   3.800000e+01   0.000000e+00
  1.000000e+00   3.900000e+01   0.000000e+00
  1.000000e+00   4.000000e+01   0.000000e+00
  1.000000e+00   4.100000e+01   0.000000e+00
  1.000000e+00   4.200000e+01   0.000000e+00
  1.000000e+00   4.300000e+01   0.000000e+00
  1.000000e+00   4.400000e+01   0.000000e+00
  1.000000e+00   4.500000e+01   0.000000e+00
  1.000000e+00   4.600000e+01   0.000000e+00
  1.000000e+00   4.700000e+01   0.000000e+00
  1.000000e+00   4.800000e+01   0.000000e+00
  1.000000e+00   4.900000e+01   0.000000e+00
  1.000000e+00   5.000000e+01   0.000000e+00
  1.000000e+00   5.100000e+01   0.000000e+00
  1.000000e+00   5.200000e+01   0.000000e+00
  1.000000e+00   5.300000e+01   0.000000e+00
  1.000000e+00   5.400000e+01   0.000000e+00
  1.000000e+00   5.500000e+01   0.000000e+00
  1.000000e+00   5.600000e+01   0.000000e+00
  1.000000e+00   5.700000e+01   0.000000e+00
  1.000000e+00   5.800000e+01   0.000000e+00
  1.000000e+00   5.900000e+01   0.000000e+00
  1.000000e+00   6.000000e+01   0.000000e+00
  1.000000e+00   6.100000e+01   0.000000e+00
  1.000000e+00   6.200000e+01   0.000000e+00
  1.000000e+00   6.300000e+01   0.000000e+00
  2.000000e+00   0.000000e+00   0.000000e+00
  2.000000e+00   1.000000e+00   0.000000e+00
  2.000000e+00   2.000000e+00   0.000000e+00
  2.000000e+00   3.000000e+00   0.000000e+00
  2.000000e+00   4.000000e+00   0.000000e+00
  2.000000e+00   5.000000e+00   0.000000e+00
  2.000000e+00   6.000000e+00   0.000000e+00
  2.000000e+00   7.000000e+00   0.000000e+00
  2.000000e+00   8.000000e+00   0.000000e+00
  2.000000e+00   9.000000e+00   0.000000e+00
  2.000000e+00   1.000000e+01   0.000000e+00
  2.000000e+00   1.100000e+01   0.000000e+00
  2.000000e+00   1.200000e+01   0.000000e+00
  2.000000e+00   1.300000e+01   0.000000e+00
  2.000000e+00   1.400000e+01   0.000000e+00
  2.000000e+00   1.500000e+01   0.000000e+00
  2.000000e+00   1.600000e+01   0.000000e+00
  2.000000e+00   1.700000e+01   0.000000e+00
  2.000000e+00   1.800000e+01   0.000000e+00
  2.000000e+00   1.900000e+01   0.000000e+00
  2.000000e+00   2.000000e+01   0.000000e+00
  2.000000e+00   2.100000e+01   0.000000e+00
  2.000000e+00   2.200000e+01   0.000000e+00
  2.000000e+00   2.300000e+01   0.000000e+00
  2.000000e+00   2.400000e+01   0.000000e+00
  2.000000e+00   2.500000e+01   0.000000e+00
  2.000000e+00   2.600000e+01   0.000000e+00
  2.000000e+00   2.700000e+01   0.000000e+00
  2.000000e+00   2.800000e+01   0.000000e+00
  2.000000e+00   2.900000e+01   0.000000e+00
  2.000000e+00   3.000000e+01   0.000000e+00
  2.000000e+00   3.100000e+01   0.000000e+00
  2.000000e+00   3.200000e+01   0.000000e+00
  2.000000e+00   3.300000e+01   0.000000e+00
  2.000000e+00   3.400000e+01   0.000000e+00
  2.000000e+00   3.500000e+01   0.000000e+00
  2.000000e+00   3.600000e+01   0.000000e+00
  2.000000e+00   3.700000e+01   0.000000e+00
  2.000000e+00   3.800000e+01   0.000000e+00
  2.000000e+00   3.900000e+01   0.000000e+00
  2.000000e+00   4.000000e+01   0.000000e+00
  2.000000e+00   4.100000e+01   0.000000e+00
  2.000000e+00   4.200000e+01   0.000000e+00
  2.000000e+00   4.300000e+01   0.000000e+00
  2.000000e+00   4.400000e+01   0.000000e+00
  2.000000e+00   4.500000e+01   0.000000e+00
  2.000000e+00   4.600000e+01   0.000000e+00
  2.000000e+00   4.700000e+01   0.000000e+00
  2.000000e+00   4.800000e+01   0.000000e+00
  2.000000e+00   4.900000e+01   0.000000e+00
  2.000000e+00   5.000000e+01   0.000000e+00
  2.000000e+00   5.100000e+01   0.000000e+00
  2.000000e+00   5.200000e+01   0.000000e+00
  2.000000e+00   5.300000e+01   0.000000e+00
  2.000000e+00   5.400000e+01   0.000000e+00
  2.000000e+00   5.500000e+01   0.000000e+00
  2.000000e+00   5.600000e+01   0.000000e+00
  2.000000e+00   5.700000e+01   0.000000e+00
  2.000000e+00   5.800000e+01   0.000000e+00
  2.000000e+00   5.900000e+01   0.000000e+00
  2.000000e+00   6.000000e+01   0.000000e+00
  2.000000e+00   6.100000e+01   0.000000e+00
  2.000000e+00   6.200000e+01   0.000000e+00
  2.000000e+00   6.300000e+01   0.000000e+00
  3.000000e+00   0.000000e+00   0.000000e+00
  3.000000e+00   1.000000e+00   0.000000e+00
  3.000000e+00   2.000000e+00   0.000000e+00
  3.000000e+00   3.000000e+00   0.000000e+00
  3.000000e+00   4.000000e+00   0.000000e+00
  3.000000e+00   5.000000e+00   0.000000e+00
  3.000000e+00   6.000000e+00   0.000000e+00
  3.000000e+00   7.000000e+00   0.000000e+00
  3.000000e+00   8.000000e+00   0.000000e+00
  3.000000e+00   9.000000e+00   0.000000e+00
  3.000000e+00   1.000000e+01   0.000000e+00
  3.000000e+00   1.100000e+01   0.000000e+00
  3.000000e+00   1.200000e+01   0.000000e+00
  3.000000e+00   1.300000e+01   0.000000e+00
  3.000000e+00   1.400000e+01   0.000000e+00
  3.000000e+00   1.500000e+01   0.000000e+00
  3.000000e+00   1.600000e+01   0.000000e+00
  3.000000e+00   1.700000e+01   0.000000e+00
  3.000000e+00   1.800000e+01   0.000000e+00
  3.000000e+00   1.900000e+01   0.000000e+00
  3.000000e+00   2.000000e+01   0.000000e+00
  3.000000e+00   2.100000e+01   0.000000e+00
  3.000000e+00   2.200000e+01   0.000000e+00
  3.000000e+00   2.300000e+01   0.000000e+00
  3.000000e+00   2.400000e+01   0.000000e+00
  3.000000e+00   2.500000e+01   0.000000e+00
  3.000000e+00   2.600000e+01   0.000000e+00
[...]
POINT_DATA  4096
SCALARS CON float 1
LOOKUP_TABLE default
  7.755205e-01
  9.582336e-01
  9.961122e-01
  9.999000e-01
  9.975445e-01
  9.874096e-01
  9.521890e-01
  8.209899e-01
  4.422086e-01
  1.214128e-01
  3.869529e-02
  2.099616e-02
  1.693319e-02
  1.655536e-02
  1.885301e-02
  2.452374e-02
  3.301248e-02
  4.071464e-02
  4.405954e-02
  4.334708e-02
  4.143492e-02
  3.869108e-02
  3.466207e-02
  3.006774e-02
  2.868856e-02
  4.294776e-02
  1.134909e-01
  3.379380e-01
  6.996265e-01
  8.926480e-01
  9.515848e-01
  9.531980e-01
  9.229164e-01
  8.710725e-01
  8.149970e-01
  7.505340e-01
  6.316602e-01
  4.242858e-01
  2.284277e-01
  1.022460e-01
  4.546747e-02
  2.831853e-02
  2.777252e-02
  4.271739e-02
  8.951095e-02
  1.651533e-01
  2.040511e-01
  1.691334e-01
  9.546484e-02
  5.364302e-02
  4.446556e-02
  6.922782e-02
  2.006051e-01
  5.941064e-01
  8.392696e-01
  8.960176e-01
  8.446828e-01
  6.370986e-01
  2.609568e-01
  7.906337e-02
  3.660278e-02
  3.701270e-02
  7.882769e-02
  2.746065e-01
  8.344033e-01
  9.764870e-01
  9.987583e-01
  9.935732e-01
  9.756108e-01
  9.315470e-01
  8.128336e-01
  5.304211e-01
  1.973054e-01
  6.379446e-02
  3.098159e-02
  2.347108e-02
  2.136421e-02
  2.121788e-02
  2.372439e-02
  3.061012e-02
  4.243345e-02
  5.685797e-02
  7.104118e-02
  8.294959e-02
  9.008908e-02
  8.883584e-02
  7.714033e-02
  5.753960e-02
  3.847685e-02
  3.153075e-02
  4.687954e-02
  1.196854e-01
  3.331987e-01
  6.814067e-01
  8.827484e-01
  9.528761e-01
  9.703513e-01
  9.695025e-01
  9.627015e-01
  9.501663e-01
  9.191681e-01
  8.404219e-01
  6.542089e-01
  3.241246e-01
  1.105653e-01
  4.784129e-02
  4.606412e-02
  9.988723e-02
  2.949395e-01
  5.849470e-01
  6.922335e-01
  5.684128e-01
  2.670481e-01
  9.621440e-02
  5.707854e-02
  9.479999e-02
  3.171175e-01
  8.023637e-01
  9.595163e-01
  9.871049e-01
  9.690816e-01
  8.683729e-01
  5.236660e-01
  1.441331e-01
  4.891577e-02
  4.265902e-02
  9.445465e-02
  3.310892e-01
  7.653037e-01
  9.371302e-01
  9.640541e-01
  9.414366e-01
  8.714296e-01
  7.193430e-01
  4.419317e-01
  2.009317e-01
  8.960536e-02
  6.040271e-02
  5.782115e-02
  5.931035e-02
  6.055515e-02
  6.412912e-02
  7.632900e-02
  1.056585e-01
  1.541701e-01
  2.098156e-01
  2.633963e-01
  3.098436e-01
  3.385522e-01
  3.331270e-01
  2.820813e-01
  1.899701e-01
  9.193284e-02
  4.296780e-02
  3.076523e-02
  4.469505e-02
  1.104779e-01
  3.021835e-01
  6.434747e-01
  8.665798e-01
  9.526172e-01
  9.808930e-01
  9.898655e-01
  9.917322e-01
  9.873649e-01
  9.690611e-01
  9.030237e-01
  6.815009e-01
  2.598034e-01
  8.868253e-02
  7.601620e-02
  1.991219e-01
  6.263249e-01
  8.891241e-01
  9.425237e-01
  8.643323e-01
  5.313780e-01
  1.615804e-01
  7.155298e-02
  1.135204e-01
  3.949220e-01
  8.651063e-01
  9.824938e-01
  9.999000e-01
  9.943445e-01
  9.438558e-01
  7.152062e-01
  2.092734e-01
  6.000415e-02
  4.276799e-02
  8.609864e-02
  2.866446e-01
  4.781027e-01
  7.258358e-01
  7.766614e-01
  7.023412e-01
  5.025169e-01
  2.776176e-01
  1.464392e-01
  1.053573e-01
  1.312679e-01
  1.870241e-01
  2.306958e-01
  2.541941e-01
  2.669838e-01
  2.863103e-01
  3.382572e-01
  4.524292e-01
  6.097366e-01
  7.297222e-01
  7.970423e-01
  8.335437e-01
  8.510145e-01
  8.466083e-01
  7.949933e-01
  6.153352e-01
  2.756936e-01
  8.665502e-02
  3.539485e-02
  2.600902e-02
  3.850193e-02
  9.448209e-02
  2.608155e-01
  5.887498e-01
  8.412789e-01
  9.469940e-01
  9.838559e-01
  9.964083e-01
  9.999000e-01
  9.981144e-01
  9.750926e-01
  8.577253e-01
  4.440936e-01
  1.406011e-01
  1.009833e-01
  2.575915e-01
  7.513299e-01
  9.548877e-01
  9.869163e-01
  9.230682e-01
  6.212070e-01
  1.854422e-01
  7.486354e-02
  1.164161e-01
  4.135059e-01
  8.749966e-01
  9.839443e-01
  9.999000e-01
  9.979508e-01
  9.640174e-01
  7.873620e-01
  2.463419e-01
  6.425414e-02
  3.695203e-02
  5.953787e-02
  1.656100e-01
  1.485052e-01
  2.292063e-01
  2.476379e-01
  2.057722e-01
  1.371250e-01
  8.824371e-02
  9.574550e-02
  2.095582e-01
  4.411585e-01
  6.667279e-01
  7.696396e-01
  8.031019e-01
  8.126614e-01
  8.197596e-01
  8.372645e-01
  8.710018e-01
  9.118365e-01
  9.430190e-01
  9.621468e-01
  9.737056e-01
  9.802547e-01
  9.805827e-01
  9.644093e-01
  8.771645e-01
  5.573806e-01
  1.587748e-01
  4.857693e-02
  2.409344e-02
  2.036305e-02
  3.128108e-02
  7.724613e-02
  2.163213e-01
  5.166402e-01
  8.028579e-01
  9.333189e-01
  9.800812e-01
  9.962288e-01
  9.999000e-01
  9.871397e-01
  8.977743e-01
  5.254697e-01
  1.641576e-01
  1.000658e-01
  2.204954e-01
  6.526264e-01
  8.940948e-01
  9.333260e-01
  8.336651e-01
  4.727639e-01
  1.410493e-01
  6.278858e-02
  1.044339e-01
  3.820099e-01
  8.633655e-01
  9.806130e-01
  9.994642e-01
  9.974052e-01
  9.672648e-01
  8.054403e-01
  2.577007e-01
  6.204186e-02
  2.887930e-02
  3.537673e-02
  6.847689e-02
  4.959681e-02
  6.532431e-02
  6.810529e-02
  5.937622e-02
  5.043501e-02
  6.456346e-02
  1.702425e-01
  5.283113e-01
  8.236774e-01
  9.297370e-01
  9.605444e-01
  9.672628e-01
  9.666993e-01
  9.649418e-01
  9.652067e-01
  9.691973e-01
  9.761489e-01
  9.835322e-01
  9.901086e-01
  9.955969e-01
  9.994405e-01
  9.999000e-01
  9.940897e-01
  9.389745e-01
  6.825128e-01
  1.996006e-01
  5.684998e-02
  2.519591e-02
  1.677506e-02
  1.570265e-02
  2.474586e-02
  6.128760e-02
  1.718520e-01
  4.263497e-01
  7.372482e-01
  8.952048e-01
  9.551524e-01
  9.710531e-01
  9.511979e-01
  8.281610e-01
  4.230457e-01
  1.340921e-01
  7.543905e-02
  1.231781e-01
  3.291382e-01
  5.974070e-01
  6.633726e-01
  4.964088e-01
  2.155944e-01
  7.729558e-02
  4.640676e-02
  8.672574e-02
  3.267347e-01
  8.380614e-01
  9.741427e-01
  9.973824e-01
  9.954920e-01
  9.657642e-01
  8.078268e-01
  2.614829e-01
  5.798393e-02
  2.153624e-02
  2.161080e-02
  3.194673e-02
  2.517816e-02
  3.002845e-02
  3.192391e-02
  3.277071e-02
  4.020005e-02
  8.362784e-02
  2.822946e-01
  7.723714e-01
  9.527092e-01
  9.922755e-01
  9.985594e-01
  9.963687e-01
  9.912465e-01
  9.846997e-01
  9.773475e-01
  9.703197e-01
  9.664836e-01
  9.675681e-01
  9.725127e-01
  9.789342e-01
  9.842316e-01
  9.850392e-01
  9.717721e-01
  8.946677e-01
  5.932542e-01
  1.714058e-01
  5.235957e-02
  2.498744e-02
  1.654611e-02
  1.283415e-02
  1.270006e-02
  2.016520e-02
  4.793091e-02
  1.272463e-01
  3.069351e-01
  5.789916e-01
  7.542521e-01
  8.061216e-01
  7.607018e-01
  5.521100e-01
  2.224872e-01
  8.286918e-02
  5.201740e-02
  6.195023e-02
  1.103824e-01
  1.801459e-01
  2.007685e-01
  1.501517e-01
  7.992759e-02
  4.359538e-02
  3.610303e-02
  7.029957e-02
  2.659832e-01
  7.915637e-01
  9.617407e-01
  9.936683e-01
  9.932420e-01
  9.648280e-01
  8.162484e-01
  2.877310e-01
  6.042939e-02
  1.678414e-02
  1.377323e-02
  1.880043e-02
  1.844350e-02
  2.230296e-02
  2.528728e-02
  2.933070e-02
  4.207912e-02
  9.842812e-02
  3.405980e-01
  8.373819e-01
  9.771938e-01
  9.999000e-01
  9.994103e-01
  9.908081e-01
  9.755623e-01
  9.531465e-01
  9.213035e-01
  8.808605e-01
  8.483666e-01
  8.375465e-01
  8.456940e-01
  8.623086e-01
  8.754623e-01
  8.722081e-01
  8.284443e-01
  6.704823e-01
  3.209016e-01
  1.010984e-01
  4.036046e-02
  2.422588e-02
  1.826008e-02
  1.525285e-02
  1.405459e-02
  1.535357e-02
  2.210037e-02
  4.159730e-02
  8.696524e-02
  1.656471e-01
  2.424710e-01
  2.783387e-01
  2.533917e-01
  1.724900e-01
  8.625447e-02
  4.881783e-02
  3.883880e-02
  4.025291e-02
  5.001653e-02
  6.419652e-02
  7.043526e-02
  6.254305e-02
  4.816479e-02
  3.716268e-02
  3.373264e-02
  5.688797e-02
  2.006405e-01
  6.877345e-01
  9.313170e-01
  9.855951e-01
  9.906339e-01
  9.676179e-01
  8.467396e-01
  3.866932e-01
  8.768053e-02
  2.006223e-02
  1.095285e-02
  1.382434e-02
  1.984314e-02
  2.212245e-02
  2.464049e-02
  2.889243e-02
  4.089449e-02
  8.911745e-02
  2.917964e-01
  7.669835e-01
  9.393704e-01
  9.714795e-01
  9.644964e-01
  9.341178e-01
  8.729287e-01
  7.817900e-01
  6.542872e-01
  4.931162e-01
  3.737769e-01
  3.318904e-01
  3.442894e-01
  3.827859e-01
  4.152866e-01
  4.073834e-01
  3.416465e-01
  2.303832e-01
  1.136877e-01
  5.314167e-02
  3.330415e-02
  2.813253e-02
  2.884530e-02
  3.305140e-02
  3.836351e-02
  4.319850e-02
  4.829785e-02
  5.556956e-02
  6.684214e-02
  8.102243e-02
  8.987922e-02
  8.802315e-02
  7.686521e-02
  5.923746e-02
  4.291924e-02
  3.513098e-02
  3.290446e-02
  3.384839e-02
  3.864000e-02
  4.974804e-02
  6.639819e-02
  7.826738e-02
  7.697931e-02
  6.328867e-02
  4.674492e-02
  4.969479e-02
  1.309891e-01
  4.749267e-01
  8.490201e-01
  9.622070e-01
  9.843105e-01
  9.730939e-01
  8.987381e-01
  5.969249e-01
  1.872582e-01
  5.257149e-02
  2.223019e-02
  1.813841e-02
  4.309745e-02
  3.304290e-02
  2.827860e-02
  2.879114e-02
  3.585287e-02
  6.278436e-02
  1.682471e-01
  4.799750e-01
  7.347588e-01
  8.042563e-01
  7.796019e-01
  6.733211e-01
  4.702392e-01
  2.809175e-01
  1.739973e-01
  1.136407e-01
  8.416661e-02
  7.866809e-02
  8.797968e-02
  1.029404e-01
  1.138378e-01
  1.128091e-01
  9.793658e-02
  7.411401e-02
  5.099731e-02
  3.901406e-02
  3.893854e-02
  5.335981e-02
  8.468048e-02
  1.304513e-01
  1.743171e-01
  2.043263e-01
  2.225983e-01
  2.325771e-01
  2.317332e-01
  2.101423e-01
  1.592318e-01
  9.721357e-02
  5.677236e-02
  3.896371e-02
  3.236294e-02
  3.042684e-02
  3.069723e-02
  3.418478e-02
  4.825556e-02
  9.273442e-02
  1.779541e-01
  2.495304e-01
  2.611839e-01
  2.069255e-01
  1.178725e-01
  6.357595e-02
  8.080957e-02
  2.449432e-01
  6.449476e-01
  8.849268e-01
  9.587480e-01
  9.715055e-01
  9.424847e-01
  8.071592e-01
  4.610884e-01
  1.973905e-01
  9.504935e-02
  5.873303e-02
  1.639760e-01
  8.846291e-02
  4.612697e-02
  3.170714e-02
  3.098717e-02
  4.050627e-02
  7.190761e-02
  1.508583e-01
  2.362895e-01
  2.674672e-01
  2.419454e-01
  1.820978e-01
  1.129558e-01
  6.316704e-02
  3.802120e-02
  2.761076e-02
  2.784659e-02
  3.798535e-02
  5.433461e-02
  6.628354e-02
  6.553643e-02
  5.688825e-02
  4.895339e-02
  4.298089e-02
  3.971365e-02
  4.399124e-02
  7.154882e-02
  1.628824e-01
  3.270959e-01
  5.311570e-01
  6.806194e-01
  7.504132e-01
  7.784199e-01
  7.868118e-01
  7.750887e-01
  7.165591e-01
  5.524781e-01
  2.991107e-01
  1.206977e-01
  5.127495e-02
  3.300607e-02
  2.950359e-02
  3.103443e-02
  4.169062e-02
  9.031474e-02
  2.692602e-01
  5.834378e-01
  7.610111e-01
  7.848432e-01
  6.741936e-01
  3.792548e-01
  1.315498e-01
  6.637833e-02
  1.072164e-01
  3.019220e-01
  6.447921e-01
  8.547131e-01
  9.362461e-01
  9.550354e-01
  9.246379e-01
  8.150224e-01
  6.231220e-01
  4.017541e-01
  2.574149e-01
  5.854003e-01
  3.036199e-01
  1.121331e-01
  4.520622e-02
  2.959999e-02
  2.999403e-02
  3.796251e-02
  5.334347e-02
  6.790512e-02
  7.070331e-02
  6.121534e-02
  4.533050e-02
  2.947367e-02
  1.892768e-02
  1.515820e-02
  1.907913e-02
  3.690177e-02
  7.968742e-02
  1.402126e-01
  1.699520e-01
  1.372708e-01
  8.160047e-02
  5.200452e-02
  4.221794e-02
  4.327837e-02
  6.422926e-02
  1.619562e-01
  4.789853e-01
  7.743609e-01
  8.930523e-01
  9.376447e-01
  9.543328e-01
  9.606853e-01
  9.627155e-01
  9.598852e-01
  9.434121e-01
  8.833332e-01
  6.985701e-01
  3.184514e-01
  9.717139e-02
  4.143831e-02
  3.095059e-02
  3.344635e-02
  5.690607e-02
  1.732725e-01
  5.800709e-01
  8.734049e-01
  9.574191e-01
  9.662843e-01
  9.197744e-01
  7.159143e-01
  2.568191e-01
  8.058050e-02
  5.471972e-02
  1.015905e-01
  2.500704e-01
  5.281909e-01
  7.804181e-01
  9.069163e-01
  9.487347e-01
  9.429544e-01
  9.066702e-01
  8.474268e-01
  7.616969e-01
  8.879589e-01
  6.819433e-01
  2.803110e-01
  8.327260e-02
  3.588289e-02
  2.943497e-02
  3.222008e-02
  3.562570e-02
  3.599834e-02
  3.249304e-02
  2.676980e-02
  2.062063e-02
  1.554951e-02
  1.313282e-02
  1.614310e-02
  3.460557e-02
  1.025560e-01
  2.763272e-01
  5.027270e-01
  5.853513e-01
  4.411033e-01
  1.964032e-01
  8.082848e-02
  4.996141e-02
  5.051488e-02
  9.071115e-02
  2.783067e-01
  7.532519e-01
  9.408684e-01
  9.844549e-01
  9.933236e-01
  9.951663e-01
  9.956372e-01
  9.959162e-01
  9.956648e-01
  9.926657e-01
  9.756572e-01
  8.948527e-01
  5.934355e-01
  1.712393e-01
  5.537833e-02
  3.374674e-02
  3.624960e-02
  7.102533e-02
  2.447572e-01
  7.578248e-01
  9.568113e-01
  9.981366e-01
  9.999000e-01
  9.786463e-01
  8.456929e-01
  3.595966e-01
  9.981576e-02
  4.162483e-02
  3.965358e-02
  7.259491e-02
  1.685702e-01
  3.864582e-01
  7.061990e-01
  8.925486e-01
  9.577202e-01
  9.729412e-01
  9.698736e-01
  9.518669e-01
  9.695156e-01
  8.691899e-01
  5.277731e-01
  1.648776e-01
  6.757443e-02
  5.586096e-02
  6.033532e-02
  5.979268e-02
  4.909184e-02
  3.466771e-02
  2.435175e-02
  1.812827e-02
  1.456263e-02
  1.446939e-02
  2.487191e-02
  7.854054e-02
  2.905906e-01
  6.853681e-01
  8.776286e-01
  9.107223e-01
  7.982112e-01
  4.083943e-01
  1.292761e-01
  5.946272e-02
  5.459587e-02
  1.024470e-01
  3.265664e-01
  8.202509e-01
  9.705006e-01
  9.978678e-01
  9.999000e-01
  9.998805e-01
  9.997882e-01
  9.999000e-01
  9.999000e-01
  9.999000e-01
  9.949489e-01
  9.488849e-01
  7.267359e-01
  2.211617e-01
  6.551195e-02
  3.598448e-02
  3.752184e-02
  7.444924e-02
  2.587217e-01
  7.807876e-01
  9.645634e-01
  9.999000e-01
  9.999000e-01
  9.819157e-01
  8.569094e-01
  3.742280e-01
  1.026171e-01
  3.840378e-02
  2.498954e-02
  2.712513e-02
  4.823776e-02
  1.199774e-01
  3.259444e-01
  6.884567e-01
  8.999160e-01
  9.702056e-01
  9.899738e-01
  9.912396e-01
  9.751353e-01
  9.166403e-01
  7.047937e-01
  3.285811e-01
  2.047769e-01
  2.076668e-01
  2.263157e-01
  2.106300e-01
  1.473652e-01
  7.456333e-02
  3.576504e-02
  2.106827e-02
  1.573188e-02
  1.727390e-02
  4.025221e-02
  1.596208e-01
  5.774445e-01
  8.910701e-01
  9.776625e-01
  9.830140e-01
  8.982768e-01
  5.288112e-01
  1.557018e-01
  6.195433e-02
  5.152633e-02
  8.839392e-02
  2.661993e-01
  7.292040e-01
  9.262239e-01
  9.731706e-01
  9.836761e-01
  9.881719e-01
  9.915314e-01
  9.943627e-01
  9.966514e-01
  9.975106e-01
  9.896781e-01
  9.360106e-01
  6.965751e-01
  2.105396e-01
  6.449015e-02
  3.671307e-02
  3.729836e-02
  6.573423e-02
  2.073037e-01
  6.647524e-01
  9.112235e-01
  9.720324e-01
  9.767478e-01
  9.408506e-01
  7.662617e-01
  2.916560e-01
  8.492609e-02
  3.553532e-02
  2.263321e-02
  1.840403e-02
  2.040254e-02
  3.839390e-02
  1.092717e-01
  3.291410e-01
  7.023413e-01
  9.022500e-01
  9.677733e-01
  9.845140e-01
  9.039240e-01
  8.496925e-01
  7.243001e-01
  5.847793e-01
  6.229199e-01
  7.128332e-01
  7.571634e-01
  7.143477e-01
  5.170022e-01
  2.248866e-01
  7.230367e-02
  2.867000e-02
  1.752336e-02
  2.095878e-02
  6.263257e-02
  2.670433e-01
  7.669977e-01
  9.550194e-01
  9.937027e-01
  9.813168e-01
  8.734947e-01
  4.605348e-01
  1.319916e-01
  5.373090e-02
  4.349069e-02
  6.133580e-02
  1.463705e-01
  4.190932e-01
  7.111443e-01
  8.338924e-01
  8.873295e-01
  9.215833e-01
  9.438973e-01
  9.573548e-01
  9.644486e-01
  9.629956e-01
  9.368305e-01
  8.246317e-01
  4.874769e-01
  1.456455e-01
  5.500076e-02
  3.931375e-02
  4.111494e-02
  5.627668e-02
  1.243108e-01
  3.682619e-01
  6.878024e-01
  8.174764e-01
  8.319988e-01
  7.503410e-01
  4.849080e-01
  1.695821e-01
  6.401811e-02
  3.593485e-02
  2.540778e-02
  1.941525e-02
  1.653474e-02
  1.932540e-02
  3.905325e-02
  1.134883e-01
  3.263068e-01
  6.577584e-01
  8.397476e-01
  9.035011e-01
  5.739262e-01
  5.071716e-01
  4.672015e-01
  6.005503e-01
  8.262007e-01
  9.237706e-01
  9.545609e-01
  9.432674e-01
  8.458164e-01
  5.181144e-01
  1.440118e-01
  4.140382e-02
  1.993601e-02
  2.687110e-02
  9.874776e-02
  4.185954e-01
  8.562483e-01
  9.715962e-01
  9.845233e-01
  9.401353e-01
  7.435338e-01
  2.869033e-01
  8.544672e-02
  4.207069e-02
  3.657710e-02
  4.225316e-02
  6.552903e-02
  1.330996e-01
  2.378667e-01
  3.520757e-01
  4.892067e-01
  6.259872e-01
  7.190613e-01
  7.700282e-01
  7.921454e-01
  7.820013e-01
  7.023991e-01
  4.802590e-01
  2.095204e-01
  8.049702e-02
  5.348156e-02
  6.146741e-02
  7.425542e-02
  8.065322e-02
  9.096190e-02
  1.407121e-01
  2.359371e-01
  3.089110e-01
  3.228089e-01
  2.711219e-01
  1.764992e-01
  1.015823e-01
  7.415121e-02
  5.839863e-02
  4.147041e-02
  2.758306e-02
  1.983223e-02
  1.737176e-02
  2.139676e-02
  4.090385e-02
  1.000965e-01
  2.285147e-01
  4.053196e-01
  5.492261e-01
  1.470476e-01
  1.359283e-01
  1.782041e-01
  4.342970e-01
  8.419511e-01
  9.664580e-01
  9.955078e-01
  9.946084e-01
  9.466458e-01
  7.161459e-01
  2.070719e-01
  5.215732e-02
  2.250959e-02
  3.757397e-02
  1.574492e-01
  6.047456e-01
  9.077608e-01
  9.712934e-01
  9.525185e-01
  8.248528e-01
  4.611549e-01
  1.410388e-01
  5.170872e-02
  3.654811e-02
  3.625181e-02
  3.722440e-02
  3.993241e-02
  4.943162e-02
  6.580444e-02
  8.676077e-02
  1.167089e-01
  1.548460e-01
  1.925061e-01
  2.237840e-01
  2.433745e-01
  2.413854e-01
  2.057829e-01
  1.378819e-01
  7.733979e-02
  6.071598e-02
  9.534728e-02
  1.782610e-01
  2.453431e-01
  2.482686e-01
  1.883301e-01
  1.161956e-01
  9.073221e-02
  9.207636e-02
  9.557543e-02
  9.941016e-02
  1.226498e-01
  1.745394e-01
  2.083142e-01
  1.853693e-01
  1.185018e-01
  5.931587e-02
  3.062931e-02
  2.097992e-02
  1.935912e-02
  2.353265e-02
  3.710264e-02
  6.575683e-02
  1.070742e-01
  1.421394e-01
  4.174419e-02
  4.315372e-02
  8.356416e-02
  2.963562e-01
  7.951149e-01
  9.641612e-01
  9.999000e-01
  9.999000e-01
  9.576657e-01
  7.412917e-01
  2.158185e-01
  5.330468e-02
  2.598347e-02
  5.962802e-02
  2.524250e-01
  7.460482e-01
  9.355259e-01
  9.561266e-01
  8.731845e-01
  5.754096e-01
  2.020744e-01
  6.644695e-02
  4.325274e-02
  4.966995e-02
  5.574526e-02
  5.133507e-02
  4.154846e-02
  3.454656e-02
  3.149958e-02
  3.098515e-02
  3.341714e-02
  3.910006e-02
  4.675906e-02
  5.457363e-02
  6.047682e-02
  6.197812e-02
  5.719583e-02
  4.846993e-02
  4.872821e-02
  9.091015e-02
  2.657624e-01
  5.842933e-01
  7.550404e-01
  7.539894e-01
  5.810187e-01
  2.645283e-01
  9.470606e-02
  5.294852e-02
  5.457863e-02
  1.001059e-01
  2.671635e-01
  5.417050e-01
  6.866078e-01
  6.427363e-01
  4.190425e-01
  1.775776e-01
  6.200859e-02
  2.944392e-02
  2.199893e-02
  2.167136e-02
  2.472530e-02
  3.063039e-02
  3.790542e-02
  4.263101e-02
  2.496850e-02
  2.661532e-02
  5.427072e-02
  1.990731e-01
  6.604293e-01
  9.149275e-01
  9.773552e-01
  9.754726e-01
  9.021274e-01
  6.085084e-01
  1.666805e-01
  4.584032e-02
  3.661213e-02
  1.159614e-01
  4.358519e-01
  8.428597e-01
  9.468774e-01
  9.179833e-01
  7.081581e-01
  2.806599e-01
  8.575388e-02
  5.057481e-02
  7.893442e-02
  1.327514e-01
  1.602504e-01
  1.308437e-01
  7.768291e-02
  4.356244e-02
  2.969779e-02
  2.431830e-02
  2.272242e-02
  2.390572e-02
  2.703565e-02
  3.014062e-02
  3.149167e-02
  3.105888e-02
  3.038533e-02
  3.297108e-02
  5.365494e-02
  1.609004e-01
  5.556329e-01
  8.705332e-01
  9.574495e-01
  9.561974e-01
  8.646755e-01
  5.408925e-01
  1.576325e-01
  5.901477e-02
  6.252066e-02
  1.753219e-01
  5.748587e-01
  8.603528e-01
  9.378575e-01
  9.239541e-01
  8.033254e-01
  4.605928e-01
  1.345045e-01
  4.534161e-02
  2.718811e-02
  2.514783e-02
  2.718015e-02
  2.950655e-02
  3.000085e-02
  2.799566e-02
  3.183609e-02
  2.660250e-02
  3.880382e-02
  1.090075e-01
  3.652698e-01
  7.093770e-01
  8.388217e-01
  8.311383e-01
  6.778302e-01
  3.175335e-01
  9.258727e-02
  4.149797e-02
  7.415786e-02
  2.572875e-01
  6.880253e-01
  9.131150e-01
  9.459597e-01
  8.469903e-01
  4.573213e-01
  1.309924e-01
  5.458600e-02
  8.809440e-02
  2.438565e-01
  4.661938e-01
  5.619534e-01
  4.448033e-01
  2.205677e-01
  8.121824e-02
  3.865477e-02
  2.796396e-02
  2.759011e-02
  3.420223e-02
  4.600283e-02
  5.416933e-02
  5.137398e-02
  4.078175e-02
  3.238470e-02
  3.344123e-02
  6.207811e-02
  2.126946e-01
  7.140487e-01
  9.492524e-01
  9.999000e-01
  9.994772e-01
  9.466910e-01
  7.069026e-01
  2.113492e-01
  7.035663e-02
  7.784989e-02