# vtk DataFile Version 2.0
time_10.vtk
ASCII
DATASET STRUCTURED_GRID
DIMENSIONS    64    64     1
POINTS    4096 float
  0.000000e+00   0.000000e+00   0.000000e+00
  0.000000e+00   1.000000e+00   0.000000e+00
  0.000000e+00   2.000000e+00   0.000000e+00
  0.000000e+00   3.000000e+00   0.000000e+00
  0.000000e+00   4.000000e+00   0.000000e+00
  0.000000e+00   5.000000e+00   0.000000e+00
  0.000000e+00   6.000000e+00   0.000000e+00
  0.000000e+00   7.000000e+00   0.000000e+00
  0.000000e+00   8.000000e+00   0.000000e+00
  0.000000e+00   9.000000e+00   0.000000e+00
  0.000000e+00   1.000000e+01   0.000000e+00
  0.000000e+00   1.100000e+01   0.000000e+00
  0.000000e+00   1.200000e+01   0.000000e+00
  0.000000e+00   1.300000e+01   0.000000e+00
  0.000000e+00   1.400000e+01   0.000000e+00
  0.000000e+00   1.500000e+01   0.000000e+00
  0.000000e+00   1.600000e+01   0.000000e+00
  0.000000e+00   1.700000e+01   0.000000e+00
  0.000000e+00   1.800000e+01   0.000000e+00
  0.000000e+00   1.900000e+01   0.000000e+00
  0.000000e+00   2.000000e+01   0.000000e+00
  0.000000e+00   2.100000e+01   0.000000e+00
  0.000000e+00   2.200000e+01   0.000000e+00
  0.000000e+00   2.300000e+01   0.000000e+00
  0.000000e+00   2.400000e+01   0.000000e+00
  0.000000e+00   2.500000e+01   0.000000e+00
  0.000000e+00   2.600000e+01   0.000000e+00
  0.000000e+00   2.700000e+01   0.000000e+00
  0.000000e+00   2.800000e+01   0.000000e+00
  0.000000e+00   2.900000e+01   0.000000e+00
  0.000000e+00   3.000000e+01   0.000000e+00
  0.000000e+00   3.100000e+01   0.000000e+00
  0.000000e+00   3.200000e+01   0.000000e+00
  0.000000e+00   3.300000e+01   0.000000e+00
  0.000000e+00   3.400000e+01   0.000000e+00
  0.000000e+00   3.500000e+01   0.000000e+00
  0.000000e+00   3.600000e+01   0.000000e+00
  0.000000e+00   3.700000e+01   0.000000e+00
  0.000000e+00   3.800000e+01   0.000000e+00
  0.000000e+00   3.900000e+01   0.000000e+00
  0.000000e+00   4.000000e+01   0.000000e+00
  0.000000e+00   4.100000e+01   0.000000e+00
  0.000000e+00   4.200000e+01   0.000000e+00
  0.000000e+00   4.300000e+01   0.000000e+00
  0.000000e+00   4.400000e+01   0.000000e+00
  0.000000e+00   4.500000e+01   0.000000e+00
  0.000000e+00   4.600000e+01   0.000000e+00
  0.000000e+00   4.700000e+01   0.000000e+00
  0.000000e+00   4.800000e+01   0.000000e+00
  0.000000e+00   4.900000e+01   0.000000e+00
  0.000000e+00   5.000000e+01   0.000000e+00
  0.000000e+00   5.100000e+01   0.000000e+00
  0.000000e+00   5.200000e+01   0.000000e+00
  0.000000e+00   5.300000e+01   0.000000e+00
  0.000000e+00   5.400000e+01   0.000000e+00
  0.000000e+00   5.500000e+01   0.000000e+00
  0.000000e+00   5.600000e+01   0.000000e+00
  0.000000e+00   5.700000e+01   0.000000e+00
  0.000000e+00   5.800000e+01   0.000000e+00
  0.000000e+00   5.900000e+01   0.000000e+00
  0.000000e+00   6.000000e+01   0.000000e+00
  0.000000e+00   6.100000e+01   0.000000e+00
  0.000000e+00   6.200000e+01   0.000000e+00
  0.000000e+00   6.300000e+01   0.000000e+00
  1.000000e+00   0.000000e+00   0.000000e+00
  1.000000e+00   1.000000e+00   0.000000e+00
  1.000000e+00   2.000000e+00   0.000000e+00
  1.000000e+00   3.000000e+00   0.000000e+00
  1.000000e+00   4.000000e+00   0.000000e+00
  1.000000e+00   5.000000e+00   0.000000e+00
  1.000000e+00   6.000000e+00   0.000000e+00
  1.000000e+00   7.000000e+00   0.000000e+00
  1.000000e+00   8.000000e+00   0.000000e+00
  1.000000e+00   9.000000e+00   0.000000e+00
  1.000000e+00   1.000000e+01   0.000000e+00
  1.000000e+00   1.100000e+01   0.000000e+00
  1.000000e+00   1.200000e+01   0.000000e+00
  1.000000e+00   1.300000e+01   0.000000e+00
  1.000000e+00   1.400000e+01   0.000000e+00
  1.000000e+00   1.500000e+01   0.000000e+00
  1.000000e+00   1.600000e+01   0.000000e+00
  1.000000e+00   1.700000e+01   0.000000e+00
  1.000000e+00   1.800000e+01   0.000000e+00
  1.000000e+00   1.900000e+01   0.000000e+00
  1.000000e+00   2.000000e+01   0.000000e+00
  1.000000e+00   2.100000e+01   0.000000e+00
  1.000000e+00   2.200000e+01   0.000000e+00
  1.000000e+00   2.300000e+01   0.000000e+00
  1.000000e+00   2.400000e+01   0.000000e+00
  1.000000e+00   2.500000e+01   0.000000e+00
  1.000000e+00   2.600000e+01   0.000000e+00
  1.000000e+00   2.700000e+01   0.000000e+00
  1.000000e+00   2.800000e+01   0.000000e+00
  1.000000e+00   2.900000e+01   0.000000e+00
  1.000000e+00   3.000000e+01   0.000000e+00
  1.000000e+00   3.100000e+01   0.000000e+00
  1.000000e+00   3.200000e+01   0.000000e+00
  1.000000e+00   3.300000e+01   0.000000e+00
  1.000000e+00   3.400000e+01   0.000000e+00
  1.000000e+00   3.500000e+01   0.000000e+00
  1.000000e+00   3.600000e+01   0.000000e+00
  1.000000e+00   3.700000e+01   0.000000e+00
  1.000000e+00   3.800000e+01   0.000000e+00
  1.000000e+00   3.900000e+01   0.000000e+00
  1.000000e+00   4.000000e+01   0.000000e+00
  1.000000e+00   4.100000e+01   0.000000e+00
  1.000000e+00   4.200000e+01   0.000000e+00
  1.000000e+00   4.300000e+01   0.000000e+00
  1.000000e+00   4.400000e+01   0.000000e+00
  1.000000e+00   4.500000e+01   0.000000e+00
  1.000000e+00   4.600000e+01   0.000000e+00
  1.000000e+00   4.700000e+01   0.000000e+00
  1.000000e+00   4.800000e+01   0.000000e+00
  1.000000e+00   4.900000e+01   0.000000e+00
  1.000000e+00   5.000000e+01   0.000000e+00
  1.000000e+00   5.100000e+01   0.000000e+00
  1.000000e+00   5.200000e+01   0.000000e+00
  1.000000e+00   5.300000e+01   0.000000e+00
  1.000000e+00   5.400000e+01   0.000000e+00
  1.000000e+00   5.500000e+01   0.000000e+00
  1.000000e+00   5.600000e+01   0.000000e+00
  1.000000e+00   5.700000e+01   0.000000e+00
  1.000000e+00   5.800000e+01   0.000000e+00
  1.000000e+00   5.900000e+01   0.000000e+00
  1.000000e+00   6.000000e+01   0.000000e+00
  1.000000e+00   6.100000e+01   0.000000e+00
  1.000000e+00   6.200000e+01   0.000000e+00
  1.000000e+00   6.300000e+01   0.000000e+00
  2.000000e+00   0.000000e+00   0.000000e+00
  2.000000e+00   1.000000e+00   0.000000e+00
  2.000000e+00   2.000000e+00   0.000000e+00
  2.000000e+00   3.000000e+00   0.000000e+00
  2.000000e+00   4.000000e+00   0.000000e+00
  2.000000e+00   5.000000e+00   0.000000e+00
  2.000000e+00   6.000000e+00   0.000000e+00
  2.000000e+00   7.000000e+00   0.000000e+00
  2.000000e+00   8.000000e+00   0.000000e+00
  2.000000e+00   9.000000e+00   0.000000e+00
  2.000000e+00   1.000000e+01   0.000000e+00
  2.000000e+00   1.100000e+01   0.000000e+00
  2.000000e+00   1.200000e+01   0.000000e+00
  2.000000e+00   1.300000e+01   0.000000e+00
  2.000000e+00   1.400000e+01   0.000000e+00
  2.000000e+00   1.500000e+01   0.000000e+00
  2.000000e+00   1.600000e+01   0.000000e+00
  2.000000e+00   1.700000e+01   0.000000e+00
  2.000000e+00   1.800000e+01   0.000000e+00
  2.000000e+00   1.900000e+01   0.000000e+00
  2.000000e+00   2.000000e+01   0.000000e+00
  2.000000e+00   2.100000e+01   0.000000e+00
  2.000000e+00   2.200000e+01   0.000000e+00
  2.000000e+00   2.300000e+01   0.000000e+00
  2.000000e+00   2.400000e+01   0.000000e+00
  2.000000e+00   2.500000e+01   0.000000e+00
  2.000000e+00   2.600000e+01   0.000000e+00
  2.000000e+00   2.700000e+01   0.000000e+00
  2.000000e+00   2.800000e+01   0.000000e+00
  2.000000e+00   2.900000e+01   0.000000e+00
  2.000000e+00   3.000000e+01   0.000000e+00
  2.000000e+00   3.100000e+01   0.000000e+00
  2.000000e+00   3.200000e+01   0.000000e+00
  2.000000e+00   3.300000e+01   0.000000e+00
  2.000000e+00   3.400000e+01   0.000000e+00
  2.000000e+00   3.500000e+01   0.000000e+00
  2.000000e+00   3.600000e+01   0.000000e+00
  2.000000e+00   3.700000e+01   0.000000e+00
  2.000000e+00   3.800000e+01   0.000000e+00
  2.000000e+00   3.900000e+01   0.000000e+00
  2.000000e+00   4.000000e+01   0.000000e+00
  2.000000e+00   4.100000e+01   0.000000e+00
  2.000000e+00   4.200000e+01   0.000000e+00
  2.000000e+00   4.300000e+01   0.000000e+00
  2.000000e+00   4.400000e+01   0.000000e+00
  2.000000e+00   4.500000e+01   0.000000e+00
  2.000000e+00   4.600000e+01   0.000000e+00
  2.000000e+00   4.700000e+01   0.000000e+00
  2.000000e+00   4.800000e+01   0.000000e+00
  2.000000e+00   4.900000e+01   0.000000e+00
  2.000000e+00   5.000000e+01   0.000000e+00
  2.000000e+00   5.100000e+01   0.000000e+00
  2.000000e+00   5.200000e+01   0.000000e+00
  2.000000e+00   5.300000e+01   0.000000e+00
  2.000000e+00   5.400000e+01   0.000000e+00
  2.000000e+00   5.500000e+01   0.000000e+00
  2.000000e+00   5.600000e+01   0.000000e+00
  2.000000e+00   5.700000e+01   0.000000e+00
  2.000000e+00   5.800000e+01   0.000000e+00
  2.000000e+00   5.900000e+01   0.000000e+00
  2.000000e+00   6.000000e+01   0.000000e+00
  2.000000e+00   6.100000e+01   0.000000e+00
  2.000000e+00   6.200000e+01   0.000000e+00
  2.000000e+00   6.300000e+01   0.000000e+00
  3.000000e+00   0.000000e+00   0.000000e+00
  3.000000e+00   1.000000e+00   0.000000e+00
  3.000000e+00   2.000000e+00   0.000000e+00
  3.000000e+00   3.000000e+00   0.000000e+00
  3.000000e+00   4.000000e+00   0.000000e+00
  3.000000e+00   5.000000e+00   0.000000e+00
  3.000000e+00   6.000000e+00   0.000000e+00
  3.000000e+00   7.000000e+00   0.000000e+00
  3.000000e+00   8.000000e+00   0.000000e+00
  3.000000e+00   9.000000e+00   0.000000e+00
  3.000000e+00   1.000000e+01   0.000000e+00
  3.000000e+00   1.100000e+01   0.000000e+00
  3.000000e+00   1.200000e+01   0.000000e+00
  3.000000e+00   1.300000e+01   0.000000e+00
  3.000000e+00   1.400000e+01   0.000000e+00
  3.000000e+00   1.500000e+01   0.000000e+00
  3.000000e+00   1.600000e+01   0.000000e+00
  3.000000e+00   1.700000e+01   0.000000e+00
  3.000000e+00   1.800000e+01   0.000000e+00
  3.000000e+00   1.900000e+01   0.000000e+00
  3.000000e+00   2.000000e+01   0.000000e+00
  3.000000e+00   2.100000e+01   0.000000e+00
  3.000000e+00   2.200000e+01   0.000000e+00
  3.000000e+00   2.300000e+01   0.000000e+00
  3.000000e+00   2.400000e+01   0.000000e+00
  3.000000e+00   2.500000e+01   0.000000e+00
  3.000000e+00   2.600000e+01   0.000000e+00
[...]
POINT_DATA  4096
SCALARS CON float 1
LOOKUP_TABLE default
  1.918115e-01
  6.847647e-01
  9.390766e-01
  9.942110e-01
  9.999000e-01
  9.998733e-01
  9.648409e-01
  7.788300e-01
  2.458924e-01
  6.581549e-02
  3.064583e-02
  2.542619e-02
  2.554434e-02
  2.647950e-02
  2.755721e-02
  2.866932e-02
  2.963730e-02
  3.014824e-02
  2.982869e-02
  2.836082e-02
  2.565018e-02
  2.211875e-02
  1.890379e-02
  1.716437e-02
  1.999965e-02
  4.214114e-02
  1.415016e-01
  4.490741e-01
  8.064359e-01
  9.455149e-01
  9.841071e-01
  9.935421e-01
  9.947413e-01
  9.918329e-01
  9.815107e-01
  9.515319e-01
  8.715064e-01
  6.773185e-01
  3.392339e-01
  1.171480e-01
  4.398254e-02
  2.805492e-02
  2.754601e-02
  3.050003e-02
  3.305606e-02
  3.390317e-02
  3.287484e-02
  3.053020e-02
  2.789786e-02
  2.665912e-02
  2.994611e-02
  4.587398e-02
  9.470354e-02
  1.818494e-01
  2.511573e-01
  2.653015e-01
  2.212123e-01
  1.397545e-01
  6.796025e-02
  3.275199e-02
  2.088413e-02
  1.865261e-02
  2.339657e-02
  5.121581e-02
  1.317821e-01
  4.923842e-01
  8.552285e-01
  9.643752e-01
  9.878017e-01
  9.836273e-01
  9.290995e-01
  6.949429e-01
  2.147394e-01
  7.053762e-02
  5.086971e-02
  5.768109e-02
  6.677864e-02
  7.395538e-02
  7.959041e-02
  8.426816e-02
  8.761571e-02
  8.826674e-02
  8.445465e-02
  7.487917e-02
  5.955559e-02
  4.135762e-02
  2.736810e-02
  2.016300e-02
  1.770391e-02
  2.272056e-02
  5.417876e-02
  1.787098e-01
  5.075217e-01
  8.250850e-01
  9.479657e-01
  9.841998e-01
  9.941376e-01
  9.964356e-01
  9.954793e-01
  9.898860e-01
  9.711338e-01
  9.087592e-01
  7.084485e-01
  3.027096e-01
  8.775320e-02
  3.585933e-02
  2.602451e-02
  2.479462e-02
  2.492617e-02
  2.496060e-02
  2.472284e-02
  2.441624e-02
  2.460794e-02
  2.720269e-02
  4.014004e-02
  9.648657e-02
  2.950119e-01
  6.096481e-01
  7.715932e-01
  7.975020e-01
  7.220770e-01
  4.967126e-01
  2.191821e-01
  7.399114e-02
  2.901532e-02
  1.870632e-02
  2.037052e-02
  3.908086e-02
  6.789736e-02
  2.327722e-01
  5.936136e-01
  8.193501e-01
  8.909740e-01
  8.808695e-01
  7.657386e-01
  4.443264e-01
  1.544913e-01
  1.040371e-01
  1.527058e-01
  2.209608e-01
  2.722282e-01
  3.063446e-01
  3.305025e-01
  3.488655e-01
  3.605188e-01
  3.601934e-01
  3.407011e-01
  2.956900e-01
  2.217903e-01
  1.280891e-01
  5.857587e-02
  2.983550e-02
  1.997526e-02
  1.760450e-02
  2.462505e-02
  6.199206e-02
  1.967305e-01
  5.227094e-01
  8.241717e-01
  9.455377e-01
  9.836599e-01
  9.952015e-01
  9.987742e-01
  9.992348e-01
  9.957134e-01
  9.775107e-01
  8.897440e-01
  5.646331e-01
  1.572994e-01
  4.956945e-02
  2.857871e-02
  2.482434e-02
  2.417328e-02
  2.399193e-02
  2.386888e-02
  2.392385e-02
  2.491166e-02
  3.046638e-02
  5.874271e-02
  1.924226e-01
  6.229164e-01
  8.870327e-01
  9.593667e-01
  9.686037e-01
  9.431799e-01
  8.433688e-01
  5.597750e-01
  1.911437e-01
  5.349790e-02
  2.144488e-02
  1.728995e-02
  2.601779e-02
  3.174171e-02
  7.974953e-02
  1.981611e-01
  3.579793e-01
  4.774489e-01
  4.655318e-01
  3.298626e-01
  1.795413e-01
  1.321856e-01
  2.589807e-01
  5.292397e-01
  7.296525e-01
  8.079705e-01
  8.356130e-01
  8.476776e-01
  8.549895e-01
  8.596224e-01
  8.600667e-01
  8.514010e-01
  8.183521e-01
  7.105693e-01
  4.393273e-01
  1.616811e-01
  5.527922e-02
  2.643230e-02
  1.819636e-02
  1.681746e-02
  2.509371e-02
  6.388573e-02
  1.952178e-01
  5.048533e-01
  8.078606e-01
  9.381435e-01
  9.815544e-01
  9.955221e-01
  9.999000e-01
  9.999000e-01
  9.942477e-01
  9.439350e-01
  7.047390e-01
  2.069197e-01
  6.012400e-02
  3.119565e-02
  2.582905e-02
  2.477136e-02
  2.445877e-02
  2.428201e-02
  2.433268e-02
  2.564104e-02
  3.369650e-02
  7.694420e-02
  2.811374e-01
  7.939359e-01
  9.633228e-01
  9.964477e-01
  9.992470e-01
  9.917811e-01
  9.566610e-01
  8.169251e-01
  4.132160e-01
  1.086013e-01
  3.001778e-02
  1.558363e-02
  1.734280e-02
  1.729092e-02
  3.039062e-02
  5.779740e-02
  9.623778e-02
  1.276664e-01
  1.276693e-01
  1.014920e-01
  9.170922e-02
  1.856273e-01
  5.628861e-01
  8.517994e-01
  9.446877e-01
  9.689975e-01
  9.753416e-01
  9.774947e-01
  9.788574e-01
  9.800582e-01
  9.808147e-01
  9.799045e-01
  9.724743e-01
  9.349354e-01
  7.810557e-01
  3.638637e-01
  1.028616e-01
  3.681983e-02
  2.095401e-02
  1.609718e-02
  1.578676e-02
  2.430583e-02
  6.063777e-02
  1.784778e-01
  4.585757e-01
  7.724493e-01
  9.207067e-01
  9.735088e-01
  9.918260e-01
  9.968432e-01
  9.892108e-01
  9.315562e-01
  6.764472e-01
  1.985041e-01
  5.966518e-02
  3.195816e-02
  2.666022e-02
  2.554435e-02
  2.517153e-02
  2.491055e-02
  2.483368e-02
  2.611811e-02
  3.532783e-02
  8.680094e-02
  3.279980e-01
  8.433856e-01
  9.786197e-01
  9.999000e-01
  9.999000e-01
  9.992453e-01
  9.865947e-01
  9.244805e-01
  6.735072e-01
  2.098519e-01
  4.937490e-02
  1.636130e-02
  1.262429e-02
  1.116855e-02
  1.588048e-02
  2.361009e-02
  3.323021e-02
  4.128862e-02
  4.411371e-02
  4.655878e-02
  7.702894e-02
  2.471833e-01
  7.516077e-01
  9.496249e-01
  9.920419e-01
  9.982279e-01
  9.987731e-01
  9.987563e-01
  9.988944e-01
  9.992235e-01
  9.996432e-01
  9.999000e-01
  9.999000e-01
  9.866779e-01
  9.025457e-01
  5.516475e-01
  1.509975e-01
  4.660313e-02
  2.375815e-02
  1.728135e-02
  1.466696e-02
  1.500632e-02
  2.288277e-02
  5.390739e-02
  1.500909e-01
  3.809996e-01
  6.971509e-01
  8.697460e-01
  9.391226e-01
  9.573339e-01
  9.352477e-01
  8.182305e-01
  4.665570e-01
  1.362870e-01
  4.890659e-02
  3.078723e-02
  2.711930e-02
  2.630253e-02
  2.600756e-02
  2.573731e-02
  2.550622e-02
  2.641775e-02
  3.497719e-02
  8.535641e-02
  3.248377e-01
  8.424979e-01
  9.776881e-01
  9.993930e-01
  9.999000e-01
  9.999000e-01
  9.945824e-01
  9.649113e-01
  8.257767e-01
  3.776508e-01
  9.010835e-02
  2.194459e-02
  1.037644e-02
  7.984383e-03
  1.020970e-02
  1.396843e-02
  1.817337e-02
  2.202937e-02
  2.552480e-02
  3.350525e-02
  7.257287e-02
  2.625773e-01
  7.907863e-01
  9.664271e-01
  9.988185e-01
  9.999000e-01
  9.999000e-01
  9.999000e-01
  9.999000e-01
  9.999000e-01
  9.999000e-01
  9.999000e-01
  9.999000e-01
  9.893425e-01
  9.112315e-01
  5.705118e-01
  1.563371e-01
  4.813368e-02
  2.493543e-02
  1.859378e-02
  1.576272e-02
  1.435090e-02
  1.517543e-02
  2.201302e-02
  4.584607e-02
  1.132077e-01
  2.656075e-01
  5.082267e-01
  7.002190e-01
  7.580900e-01
  6.963069e-01
  4.726984e-01
  1.997479e-01
  7.165780e-02
  3.708135e-02
  2.913659e-02
  2.744949e-02
  2.720428e-02
  2.732205e-02
  2.741128e-02
  2.719417e-02
  2.739803e-02
  3.358896e-02
  7.483468e-02
  2.800647e-01
  8.031980e-01
  9.662153e-01
  9.964982e-01
  9.999000e-01
  9.999000e-01
  9.970402e-01
  9.820666e-01
  9.098344e-01
  6.157082e-01
  1.751938e-01
  3.871912e-02
  1.117153e-02
  7.457863e-03
  7.180876e-03
  9.690040e-03
  1.284324e-02
  1.605599e-02
  1.970009e-02
  2.765187e-02
  6.108437e-02
  2.197954e-01
  7.159463e-01
  9.400873e-01
  9.905192e-01
  9.983115e-01
  9.987827e-01
  9.982408e-01
  9.977237e-01
  9.973338e-01
  9.968580e-01
  9.953785e-01
  9.889612e-01
  9.586603e-01
  8.266080e-01
  4.123383e-01
  1.147375e-01
  4.071804e-02
  2.432839e-02
  1.967819e-02
  1.766156e-02
  1.689370e-02
  1.764142e-02
  2.056963e-02
  2.755358e-02
  4.448803e-02
  8.220528e-02
  1.477357e-01
  2.145842e-01
  2.400596e-01
  2.098221e-01
  1.376562e-01
  7.105878e-02
  4.014123e-02
  3.054956e-02
  2.821484e-02
  2.806710e-02
  2.894092e-02
  3.082733e-02
  3.312284e-02
  3.390840e-02
  3.264971e-02
  3.408252e-02
  6.054305e-02
  2.087435e-01
  6.920097e-01
  9.318347e-01
  9.875444e-01
  9.980079e-01
  9.993560e-01
  9.977626e-01
  9.899858e-01
  9.541716e-01
  7.943271e-01
  3.412690e-01
  8.395073e-02
  1.962102e-02
  1.456732e-02
  7.197107e-03
  7.573954e-03
  1.000446e-02
  1.300980e-02
  1.650560e-02
  2.266703e-02
  4.361241e-02
  1.366165e-01
  4.758349e-01
  8.178092e-01
  9.366994e-01
  9.674468e-01
  9.740074e-01
  9.744557e-01
  9.734008e-01
  9.716410e-01
  9.679887e-01
  9.575955e-01
  9.250711e-01
  8.265747e-01
  5.674821e-01
  2.067037e-01
  6.597164e-02
  3.148627e-02
  2.326763e-02
  2.101260e-02
  2.118199e-02
  2.485638e-02
  3.417358e-02
  4.791406e-02
  6.116539e-02
  7.319723e-02
  8.578532e-02
  9.836480e-02
  1.030053e-01
  9.201905e-02
  7.129392e-02
  5.082725e-02
  3.654042e-02
  3.005559e-02
  2.813682e-02
  2.819005e-02
  2.970397e-02
  3.413416e-02
  4.449793e-02
  5.915543e-02
  6.634122e-02
  5.950263e-02
  4.636119e-02
  5.030308e-02
  1.286003e-01
  4.557269e-01
  8.343242e-01
  9.592935e-01
  9.899601e-01
  9.968286e-01
  9.973138e-01
  9.935864e-01
  9.768427e-01
  9.019744e-01
  6.194058e-01
  2.062869e-01
  5.252557e-02
  5.068239e-02
  1.832574e-02
  1.046122e-02
  9.916424e-03
  1.179131e-02
  1.463515e-02
  1.883210e-02
  2.886560e-02
  6.476465e-02
  1.919352e-01
  4.613028e-01
  7.025964e-01
  7.987229e-01
  8.268201e-01
  8.323380e-01
  8.301345e-01
  8.232866e-01
  8.074906e-01
  7.655746e-01
  6.531208e-01
  4.259003e-01
  2.041395e-01
  7.900550e-02
  3.686079e-02
  2.566911e-02
  2.303713e-02
  2.383305e-02
  3.069860e-02
  5.460473e-02
  1.103401e-01
  1.879893e-01
  2.503087e-01
  2.888275e-01
  3.046705e-01
  2.926934e-01
  2.427565e-01
  1.579120e-01
  8.040753e-02
  4.326141e-02
  3.102024e-02
  2.785188e-02
  2.766510e-02
  2.912869e-02
  3.432691e-02
  5.218332e-02
  1.034082e-01
  1.831572e-01
  2.233690e-01
  1.899175e-01
  1.108196e-01
  6.041309e-02
  7.425943e-02
  2.188876e-01
  5.984205e-01
  8.690361e-01
  9.609360e-01
  9.874351e-01
  9.943968e-01
  9.944529e-01
  9.875971e-01
  9.572594e-01
  8.335584e-01
  4.809362e-01
  1.642012e-01
  1.956929e-01
  7.778761e-02
  3.588254e-02
  2.093926e-02
  1.633684e-02
  1.590006e-02
  1.757019e-02
  2.163226e-02
  3.242972e-02
  6.321858e-02
  1.286831e-01
  2.072273e-01
  2.610834e-01
  2.870070e-01
  2.941567e-01
  2.908828e-01
  2.808795e-01
  2.626833e-01
  2.306477e-01
  1.787090e-01
  1.126357e-01
  6.147688e-02
  3.516447e-02
  2.591366e-02
  2.356499e-02
  2.425520e-02
  3.059089e-02
  5.905189e-02
  1.641120e-01
  4.035201e-01
  6.647164e-01
  7.856635e-01
  8.261509e-01
  8.345514e-01
  8.158496e-01
  7.346490e-01
  5.090356e-01
  2.169247e-01
  7.459414e-02
  3.664829e-02
  2.870396e-02
  2.815456e-02
  3.141389e-02
  4.590020e-02
  1.074419e-01
  3.183953e-01
  6.142947e-01
  7.262032e-01
  6.384818e-01
  3.525837e-01
  1.207970e-01
  5.918277e-02
  9.142224e-02
  2.622923e-01
  6.122325e-01
  8.556850e-01
  9.503921e-01
  9.818614e-01
  9.910699e-01
  9.911293e-01
  9.810037e-01
  9.390551e-01
  7.938936e-01
  4.704441e-01
  5.959027e-01
  3.193727e-01
  1.636021e-01
  8.506570e-02
  4.785163e-02
  2.993119e-02
  2.234670e-02
  2.075089e-02
  2.281046e-02
  2.895626e-02
  4.060803e-02
  5.435848e-02
  6.412614e-02
  6.868514e-02
  6.965100e-02
  6.885674e-02
  6.710019e-02
  6.387968e-02
  5.790254e-02
  4.836885e-02
  3.702507e-02
  2.853371e-02
  2.434117e-02
  2.313376e-02
  2.359188e-02
  2.702685e-02
  4.403296e-02
  1.249133e-01
  4.277225e-01
  7.864706e-01
  9.246477e-01
  9.640682e-01
  9.745041e-01
  9.762787e-01
  9.710261e-01
  9.440116e-01
  8.355096e-01
  5.059656e-01
  1.482842e-01
  5.064230e-02
  3.128524e-02
  2.916791e-02
  3.484318e-02
  6.490101e-02
  2.062861e-01
  6.513403e-01
  8.976258e-01
  9.525027e-01
  9.118613e-01
  6.965061e-01
  2.364345e-01
  7.226749e-02
  4.719761e-02
  8.913835e-02
  2.396335e-01
  5.462493e-01
  8.090886e-01
  9.289196e-01
  9.725581e-01
  9.864885e-01
  9.878393e-01
  9.771069e-01
  9.370660e-01
  8.243093e-01
  8.936114e-01
  7.795388e-01
  5.933343e-01
  3.598151e-01
  1.998268e-01
  1.004951e-01
  4.829276e-02
  2.800406e-02
  2.243985e-02
  2.172019e-02
  2.259922e-02
  2.375016e-02
  2.433149e-02
  2.444873e-02
  2.477481e-02
  2.598208e-02
  2.812971e-02
  3.012292e-02
  3.042822e-02
  2.854521e-02
  2.569242e-02
  2.370990e-02
  2.300285e-02
  2.318597e-02
  2.448401e-02
  3.044568e-02
  6.084755e-02
  2.097440e-01
  6.913563e-01
  9.307420e-01
  9.875539e-01
  9.976434e-01
  9.992822e-01
  9.995452e-01
  9.988047e-01
  9.914732e-01
  9.439343e-01
  7.284541e-01
  2.283966e-01
  6.635585e-02
  3.419568e-02
  3.014023e-02
  3.750762e-02
  7.962172e-02
  2.790027e-01
  7.982804e-01
  9.698752e-01
  9.999000e-01
  9.792263e-01
  8.343963e-01
  3.288221e-01
  8.974328e-02
  3.722480e-02
  3.615144e-02
  7.249410e-02
  1.845645e-01
  4.302140e-01
  7.304978e-01
  8.918211e-01
  9.566017e-01
  9.797872e-01
  9.851520e-01
  9.784499e-01
  9.533295e-01
  9.737720e-01
  9.507226e-01
  9.048027e-01
  8.177790e-01
  6.525378e-01
  3.699865e-01
  1.496983e-01
  5.505055e-02
  2.863208e-02
  2.179609e-02
  1.946341e-02
  1.812598e-02
  1.732275e-02
  1.768348e-02
  2.064078e-02
  2.805322e-02
  4.002327e-02
  5.101648e-02
  5.355518e-02
  4.598945e-02
  3.476963e-02
  2.754804e-02
  2.474012e-02
  2.418385e-02
  2.541448e-02
  3.264688e-02
  7.081497e-02
  2.568585e-01
  7.851142e-01
  9.653044e-01
  9.987158e-01
  9.999000e-01
  9.999000e-01
  9.999000e-01
  9.999000e-01
  9.988861e-01
  9.672031e-01
  7.938019e-01
  2.648026e-01
  7.406504e-02
  3.578538e-02
  3.065569e-02
  3.791088e-02
  8.059879e-02
  2.830859e-01
  8.041007e-01
  9.715983e-01
  9.999000e-01
  9.820126e-01
  8.439579e-01
  3.404114e-01
  9.272615e-02
  3.546874e-02
  2.383928e-02
  2.781334e-02
  5.315776e-02
  1.285643e-01
  3.090540e-01
  6.110874e-01
  8.276680e-01
  9.299090e-01
  9.699128e-01
  9.830358e-01
  9.834165e-01
  9.887824e-01
  9.888146e-01
  9.825646e-01
  9.653084e-01
  9.172571e-01
  7.697766e-01
  4.148692e-01
  1.236180e-01
  4.333707e-02
  2.480353e-02
  1.950718e-02
  1.728002e-02
  1.709301e-02
  2.136145e-02
  3.664418e-02
  7.344893e-02
  1.343077e-01
  1.877591e-01
  1.942980e-01
  1.468543e-01
  8.132699e-02
  4.278208e-02
  2.934553e-02
  2.571053e-02
  2.595232e-02
  3.242768e-02
  6.793911e-02
  2.418772e-01
  7.578326e-01
  9.553757e-01
  9.954550e-01
  9.999000e-01
  9.999000e-01
  9.999000e-01
  9.999000e-01
  9.941900e-01
  9.522402e-01
  7.517513e-01
  2.408854e-01
  6.955094e-02
  3.555690e-02
  3.114958e-02
  3.689018e-02
  6.869890e-02
  2.190589e-01
  6.797204e-01
  9.119548e-01
  9.619964e-01
  9.294041e-01
  7.363480e-01
  2.621385e-01
  7.682319e-02
  3.331108e-02
  2.209470e-02
  1.893368e-02
  2.182048e-02
  3.745069e-02
  8.481579e-02
  2.051014e-01
  4.462957e-01
  7.309954e-01
  8.893173e-01
  9.560755e-01
  9.809738e-01
  9.786087e-01
  9.929293e-01
  9.978634e-01
  9.974632e-01
  9.869785e-01
  9.309674e-01
  6.990644e-01
  2.197560e-01
  6.342803e-02
  2.889731e-02
  2.022905e-02
  1.788087e-02
  2.149992e-02
  4.184200e-02
  1.094760e-01
  2.698675e-01
  5.109097e-01
  6.777558e-01
  6.877183e-01
  5.280910e-01
  2.570589e-01
  8.967111e-02
  3.997100e-02
  2.802150e-02
  2.602530e-02
  2.997885e-02
  5.391911e-02
  1.715818e-01
  5.847276e-01
  8.793364e-01
  9.643832e-01
  9.851774e-01
  9.901509e-01
  9.896270e-01
  9.833754e-01
  9.599041e-01
  8.685687e-01
  5.651201e-01
  1.673981e-01
  5.606618e-02
  3.517270e-02
  3.450795e-02
  4.020285e-02
  5.768592e-02
  1.285648e-01
  3.710079e-01
  6.701595e-01
  7.705449e-01
  6.990527e-01
  4.202702e-01
  1.427780e-01
  5.410138e-02
  3.116151e-02
  2.345542e-02
  1.926055e-02
  1.695286e-02
  1.789793e-02
  2.649546e-02
  5.429298e-02
  1.289488e-01
  3.043570e-01
  6.083647e-01
  8.343280e-01
  9.388355e-01
  9.182781e-01
  9.736528e-01
  9.935694e-01
  9.999000e-01
  9.999000e-01
  9.690696e-01
  7.973793e-01
  2.752633e-01
  7.606936e-02
  3.152817e-02
  2.102879e-02
  2.104014e-02
  3.866204e-02
  1.153362e-01
  3.465840e-01
  6.939577e-01
  8.746608e-01
  9.377925e-01
  9.394690e-01
  8.642169e-01
  5.968408e-01
  1.874114e-01
  5.908725e-02
  3.119888e-02
  2.574943e-02
  2.671673e-02
  3.750090e-02
  8.792444e-02
  2.776591e-01
  6.184765e-01
  8.170899e-01
  8.948900e-01
  9.223301e-01
  9.199294e-01
  8.873770e-01
  8.030674e-01
  5.943883e-01
  2.632596e-01
  8.773217e-02
  4.370786e-02
  4.055194e-02
  5.334505e-02
  7.103994e-02
  8.370855e-02
  9.858920e-02
  1.460709e-01
  2.238210e-01
  2.608614e-01
  2.248346e-01
  1.362501e-01
  6.757422e-02
  4.306599e-02
  3.512390e-02
  2.995607e-02
  2.443756e-02
  1.949941e-02
  1.631533e-02
  1.561087e-02
  1.965561e-02
  3.553037e-02
  8.303685e-02
  2.104442e-01
  4.788122e-01
  7.713801e-01
  6.979343e-01
  8.802429e-01
  9.533983e-01
  9.790133e-01
  9.822543e-01
  9.436234e-01
  7.480564e-01
  2.509120e-01
  7.180797e-02
  3.100858e-02
  2.253539e-02
  3.180126e-02
  9.133387e-02
  3.121036e-01
  7.089819e-01
  9.119869e-01
  9.754171e-01
  9.932588e-01
  9.932766e-01
  9.602182e-01
  7.905250e-01
  2.842202e-01
  7.841855e-02
  3.382890e-02
  2.508885e-02
  2.402480e-02
  2.722050e-02
  4.177091e-02
  9.114664e-02
  2.018800e-01
  3.540549e-01
  5.159170e-01
  6.095536e-01
  6.012754e-01
  4.946395e-01
  3.345911e-01
  1.917594e-01
  9.011566e-02
  4.788879e-02
  4.358709e-02
  6.901115e-02
  1.418675e-01
  2.281763e-01
  2.597177e-01
  2.198576e-01
  1.427485e-01
  9.848919e-02
  8.507481e-02
  7.344468e-02
  5.903859e-02
  5.416121e-02
  6.174858e-02
  6.732469e-02
  6.102967e-02
  4.496850e-02
  2.951149e-02
  2.062511e-02
  1.630731e-02
  1.462867e-02
  1.620830e-02
  2.575233e-02
  5.788258e-02
  1.510813e-01
  3.749014e-01
  2.765258e-01
  5.532882e-01
  7.600117e-01
  8.433527e-01
  8.545119e-01
  7.748595e-01
  4.956786e-01
  1.581481e-01
  5.356179e-02
  2.829499e-02
  2.746199e-02
  6.233694e-02
  2.235641e-01
  6.336118e-01
  8.971600e-01
  9.760063e-01
  9.959507e-01
  9.999000e-01
  9.999000e-01
  9.794886e-01
  8.471081e-01
  3.366168e-01
  8.846405e-02
  3.429899e-02
  2.385580e-02
  2.196119e-02
  2.236734e-02
  2.554043e-02
  3.552569e-02
  5.737788e-02
  9.041786e-02
  1.290682e-01
  1.546020e-01
  1.525488e-01
  1.247300e-01
  8.789690e-02
  5.854332e-02
  4.109808e-02
  3.899602e-02
  6.157096e-02
  1.614882e-01
  4.539989e-01
  7.139771e-01
  7.718545e-01
  6.608926e-01
  3.549375e-01
  1.240758e-01
  5.917395e-02
  4.725423e-02
  5.737056e-02
  1.021378e-01
  1.812312e-01
  2.304518e-01
  2.117303e-01
  1.376626e-01
  6.607512e-02
  3.271824e-02
  2.105711e-02
  1.668468e-02
  1.488682e-02
  1.548239e-02
  2.180955e-02
  4.450465e-02
  1.117241e-01
  7.658186e-02
  1.558943e-01
  2.552468e-01
  3.377190e-01
  3.599065e-01
  2.934131e-01
  1.689223e-01
  7.144018e-02
  3.588471e-02
  2.699185e-02
  4.181501e-02
  1.363882e-01
  4.739753e-01
  8.440447e-01
  9.642049e-01
  9.932131e-01
  9.994760e-01
  9.999000e-01
  9.998044e-01
  9.793906e-01
  8.483832e-01
  3.334168e-01
  8.542977e-02
  3.203266e-02
  2.199671e-02
  2.014306e-02
  1.988170e-02
  2.030012e-02
  2.188723e-02
  2.542273e-02
  3.093751e-02
  3.750070e-02
  4.215476e-02
  4.241711e-02
  3.863152e-02
  3.375028e-02
  3.074064e-02
  3.155158e-02
  4.238381e-02
  9.348910e-02
  3.090963e-01
  7.699303e-01
  9.384801e-01
  9.633623e-01
  9.061979e-01
  6.566354e-01
  2.074255e-01
  7.100361e-02
  5.454008e-02
  1.042702e-01
  3.002270e-01
  6.038750e-01
  7.422517e-01
  7.048245e-01
  4.791895e-01
  1.932444e-01
  6.494979e-02
  3.007605e-02
  2.090497e-02
  1.782509e-02
  1.658177e-02
  1.704747e-02
  2.153540e-02
  3.670781e-02
  3.168466e-02
  4.750629e-02
  6.955677e-02
  9.025234e-02
  9.777756e-02
  8.458405e-02
  5.873568e-02
  3.727134e-02
  2.759542e-02
  3.079113e-02
  7.546257e-02
  2.853562e-01
  7.374182e-01
  9.380669e-01
  9.873818e-01
  9.980535e-01
  9.999000e-01
  9.999000e-01
  9.974290e-01
  9.700221e-01
  8.150948e-01
  2.869761e-01
  7.223846e-02
  2.774312e-02
  1.972180e-02
  1.839935e-02
  1.821378e-02
  1.825657e-02
  1.857880e-02
  1.946401e-02
  2.110914e-02
  2.339205e-02
  2.556666e-02
  2.666490e-02
  2.656716e-02
  2.628790e-02
  2.717058e-02
  3.121205e-02
  4.686073e-02
  1.171355e-01
  4.083622e-01
  8.687916e-01
  9.871036e-01
  9.999000e-01
  9.637009e-01
  7.724486e-01
  2.586755e-01
  8.369439e-02
  7.287675e-02