# vtk DataFile Version 2.0
time_10.vtk
ASCII
DATASET STRUCTURED_GRID
DIMENSIONS    64    64     1
POINTS    4096 float
  0.000000e+00   0.000000e+00   0.000000e+00
  0.000000e+00   1.000000e+00   0.000000e+00
  0.000000e+00   2.000000e+00   0.000000e+00
  0.000000e+00   3.000000e+00   0.000000e+00
  0.000000e+00   4.000000e+00   0.000000e+00
  0.000000e+00   5.000000e+00   0.000000e+00
  0.000000e+00   6.000000e+00   0.000000e+00
  0.000000e+00   7.000000e+00   0.000000e+00
  0.000000e+00   8.000000e+00   0.000000e+00
  0.000000e+00   9.000000e+00   0.000000e+00
  0.000000e+00   1.000000e+01   0.000000e+00
  0.000000e+00   1.100000e+01   0.000000e+00
  0.000000e+00   1.200000e+01   0.000000e+00
  0.000000e+00   1.300000e+01   0.000000e+00
  0.000000e+00   1.400000e+01   0.000000e+00
  0.000000e+00   1.500000e+01   0.000000e+00
  0.000000e+00   1.600000e+01   0.000000e+00
  0.000000e+00   1.700000e+01   0.000000e+00
  0.000000e+00   1.800000e+01   0.000000e+00
  0.000000e+00   1.900000e+01   0.000000e+00
  0.000000e+00   2.000000e+01   0.000000e+00
  0.000000e+00   2.100000e+01   0.000000e+00
  0.000000e+00   2.200000e+01   0.000000e+00
  0.000000e+00   2.300000e+01   0.000000e+00
  0.000000e+00   2.400000e+01   0.000000e+00
  0.000000e+00   2.500000e+01   0.000000e+00
  0.000000e+00   2.600000e+01   0.000000e+00
  0.000000e+00   2.700000e+01   0.000000e+00
  0.000000e+00   2.800000e+01   0.000000e+00
  0.000000e+00   2.900000e+01   0.000000e+00
  0.000000e+00   3.000000e+01   0.000000e+00
  0.000000e+00   3.100000e+01   0.000000e+00
  0.000000e+00   3.200000e+01   0.000000e+00
  0.000000e+00   3.300000e+01   0.000000e+00
  0.000000e+00   3.400000e+01   0.000000e+00
  0.000000e+00   3.500000e+01   0.000000e+00
  0.000000e+00   3.600000e+01   0.000000e+00
  0.000000e+00   3.700000e+01   0.000000e+00
  0.000000e+00   3.800000e+01   0.000000e+00
  0.000000e+00   3.900000e+01   0.000000e+00
  0.000000e+00   4.000000e+01   0.000000e+00
  0.000000e+00   4.100000e+01   0.000000e+00
  0.000000e+00   4.200000e+01   0.000000e+00
  0.000000e+00   4.300000e+01   0.000000e+00
  0.000000e+00   4.400000e+01   0.000000e+00
  0.000000e+00   4.500000e+01   0.000000e+00
  0.000000e+00   4.600000e+01   0.000000e+00
  0.000000e+00   4.700000e+01   0.000000e+00
  0.000000e+00   4.800000e+01   0.000000e+00
  0.000000e+00   4.900000e+01   0.000000e+00
  0.000000e+00   5.000000e+01   0.000000e+00
  0.000000e+00   5.100000e+01   0.000000e+00
  0.000000e+00   5.200000e+01   0.000000e+00
  0.000000e+00   5.300000e+01   0.000000e+00
  0.000000e+00   5.400000e+01   0.000000e+00
  0.000000e+00   5.500000e+01   0.000000e+00
  0.000000e+00   5.600000e+01   0.000000e+00
  0.000000e+00   5.700000e+01   0.000000e+00
  0.000000e+00   5.800000e+01   0.000000e+00
  0.000000e+00   5.900000e+01   0.000000e+00
  0.000000e+00   6.000000e+01   0.000000e+00
  0.000000e+00   6.100000e+01   0.000000e+00
  0.000000e+00   6.200000e+01   0.000000e+00
  0.000000e+00   6.300000e+01   0.000000e+00
  1.000000e+00   0.000000e+00   0.000000e+00
  1.000000e+00   1.000000e+00   0.000000e+00
  1.000000e+00   2.000000e+00   0.000000e+00
  1.000000e+00   3.000000e+00   0.000000e+00
  1.000000e+00   4.000000e+00   0.000000e+00
  1.000000e+00   5.000000e+00   0.000000e+00
  1.000000e+00   6.000000e+00   0.000000e+00
  1.000000e+00   7.000000e+00   0.000000e+00
  1.000000e+00   8.000000e+00   0.000000e+00
  1.000000e+00   9.000000e+00   0.000000e+00
  1.000000e+00   1.000000e+01   0.000000e+00
  1.000000e+00   1.100000e+01   0.000000e+00
  1.000000e+00   1.200000e+01   0.000000e+00
  1.000000e+00   1.300000e+01   0.000000e+00
  1.000000e+00   1.400000e+01   0.000000e+00
  1.000000e+00   1.500000e+01   0.000000e+00
  1.000000e+00   1.600000e+01   0.000000e+00
  1.000000e+00   1.700000e+01   0.000000e+00
  1.000000e+00   1.800000e+01   0.000000e+00
  1.000000e+00   1.900000e+01   0.000000e+00
  1.000000e+00   2.000000e+01   0.000000e+00
  1.000000e+00   2.100000e+01   0.000000e+00
  1.000000e+00   2.200000e+01   0.000000e+00
  1.000000e+00   2.300000e+01   0.000000e+00
  1.000000e+00   2.400000e+01   0.000000e+00
  1.000000e+00   2.500000e+01   0.000000e+00
  1.000000e+00   2.600000e+01   0.000000e+00
  1.000000e+00   2.700000e+01   0.000000e+00
  1.000000e+00   2.800000e+01   0.000000e+00
  1.000000e+00   2.900000e+01   0.000000e+00
  1.000000e+00   3.000000e+01   0.000000e+00
  1.000000e+00   3.100000e+01   0.000000e+00
  1.000000e+00   3.200000e+01   0.000000e+00
  1.000000e+00   3.300000e+01   0.000000e+00
  1.000000e+00   3.400000e+01   0.000000e+00
  1.000000e+00   3.500000e+01   0.000000e+00
  1.000000e+00   3.600000e+01   0.000000e+00
  1.000000e+00   3.700000e+01   0.000000e+00
  1.000000e+00   3.800000e+01   0.000000e+00
  1.000000e+00   3.900000e+01   0.000000e+00
  1.000000e+00   4.000000e+01   0.000000e+00
  1.000000e+00   4.100000e+01   0.000000e+00
  1.000000e+00   4.200000e+01   0.000000e+00
  1.000000e+00   4.300000e+01   0.000000e+00
  1.000000e+00   4.400000e+01   0.000000e+00
  1.000000e+00   4.500000e+01   0.000000e+00
  1.000000e+00   4.600000e+01   0.000000e+00
  1.000000e+00   4.700000e+01   0.000000e+00
  1.000000e+00   4.800000e+01   0.000000e+00
  1.000000e+00   4.900000e+01   0.000000e+00
  1.000000e+00   5.000000e+01   0.000000e+00
  1.000000e+00   5.100000e+01   0.000000e+00
  1.000000e+00   5.200000e+01   0.000000e+00
  1.000000e+00   5.300000e+01   0.000000e+00
  1.000000e+00   5.400000e+01   0.000000e+00
  1.000000e+00   5.500000e+01   0.000000e+00
  1.000000e+00   5.600000e+01   0.000000e+00
  1.000000e+00   5.700000e+01   0.000000e+00
  1.000000e+00   5.800000e+01   0.000000e+00
  1.000000e+00   5.900000e+01   0.000000e+00
  1.000000e+00   6.000000e+01   0.000000e+00
  1.000000e+00   6.100000e+01   0.000000e+00
  1.000000e+00   6.200000e+01   0.000000e+00
  1.000000e+00   6.300000e+01   0.000000e+00
  2.000000e+00   0.000000e+00   0.000000e+00
  2.000000e+00   1.000000e+00   0.000000e+00
  2.000000e+00   2.000000e+00   0.000000e+00
  2.000000e+00   3.000000e+00   0.000000e+00
  2.000000e+00   4.000000e+00   0.000000e+00
  2.000000e+00   5.000000e+00   0.000000e+00
  2.000000e+00   6.000000e+00   0.000000e+00
  2.000000e+00   7.000000e+00   0.000000e+00
  2.000000e+00   8.000000e+00   0.000000e+00
  2.000000e+00   9.000000e+00   0.000000e+00
  2.000000e+00   1.000000e+01   0.000000e+00
  2.000000e+00   1.100000e+01   0.000000e+00
  2.000000e+00   1.200000e+01   0.000000e+00
  2.000000e+00   1.300000e+01   0.000000e+00
  2.000000e+00   1.400000e+01   0.000000e+00
  2.000000e+00   1.500000e+01   0.000000e+00
  2.000000e+00   1.600000e+01   0.000000e+00
  2.000000e+00   1.700000e+01   0.000000e+00
  2.000000e+00   1.800000e+01   0.000000e+00
  2.000000e+00   1.900000e+01   0.000000e+00
  2.000000e+00   2.000000e+01   0.000000e+00
  2.000000e+00   2.100000e+01   0.000000e+00
  2.000000e+00   2.200000e+01   0.000000e+00
  2.000000e+00   2.300000e+01   0.000000e+00
  2.000000e+00   2.400000e+01   0.000000e+00
  2.000000e+00   2.500000e+01   0.000000e+00
  2.000000e+00   2.600000e+01   0.000000e+00
  2.000000e+00   2.700000e+01   0.000000e+00
  2.000000e+00   2.800000e+01   0.000000e+00
  2.000000e+00   2.900000e+01   0.000000e+00
  2.000000e+00   3.000000e+01   0.000000e+00
  2.000000e+00   3.100000e+01   0.000000e+00
  2.000000e+00   3.200000e+01   0.000000e+00
  2.000000e+00   3.300000e+01   0.000000e+00
  2.000000e+00   3.400000e+01   0.000000e+00
  2.000000e+00   3.500000e+01   0.000000e+00
  2.000000e+00   3.600000e+01   0.000000e+00
  2.000000e+00   3.700000e+01   0.000000e+00
  2.000000e+00   3.800000e+01   0.000000e+00
  2.000000e+00   3.900000e+01   0.000000e+00
  2.000000e+00   4.000000e+01   0.000000e+00
  2.000000e+00   4.100000e+01   0.000000e+00
  2.000000e+00   4.200000e+01   0.000000e+00
  2.000000e+00   4.300000e+01   0.000000e+00
  2.000000e+00   4.400000e+01   0.000000e+00
  2.000000e+00   4.500000e+01   0.000000e+00
  2.000000e+00   4.600000e+01   0.000000e+00
  2.000000e+00   4.700000e+01   0.000000e+00
  2.000000e+00   4.800000e+01   0.000000e+00
  2.000000e+00   4.900000e+01   0.000000e+00
  2.000000e+00   5.000000e+01   0.000000e+00
  2.000000e+00   5.100000e+01   0.000000e+00
  2.000000e+00   5.200000e+01   0.000000e+00
  2.000000e+00   5.300000e+01   0.000000e+00
  2.000000e+00   5.400000e+01   0.000000e+00
  2.000000e+00   5.500000e+01   0.000000e+00
  2.000000e+00   5.600000e+01   0.000000e+00
  2.000000e+00   5.700000e+01   0.000000e+00
  2.000000e+00   5.800000e+01   0.000000e+00
  2.000000e+00   5.900000e+01   0.000000e+00
  2.000000e+00   6.000000e+01   0.000000e+00
  2.000000e+00   6.100000e+01   0.000000e+00
  2.000000e+00   6.200000e+01   0.000000e+00
  2.000000e+00   6.300000e+01   0.000000e+00
  3.000000e+00   0.000000e+00   0.000000e+00
  3.000000e+00   1.000000e+00   0.000000e+00
  3.000000e+00   2.000000e+00   0.000000e+00
  3.000000e+00   3.000000e+00   0.000000e+00
  3.000000e+00   4.000000e+00   0.000000e+00
  3.000000e+00   5.000000e+00   0.000000e+00
  3.000000e+00   6.000000e+00   0.000000e+00
  3.000000e+00   7.000000e+00   0.000000e+00
  3.000000e+00   8.000000e+00   0.000000e+00
  3.000000e+00   9.000000e+00   0.000000e+00
  3.000000e+00   1.000000e+01   0.000000e+00
  3.000000e+00   1.100000e+01   0.000000e+00
  3.000000e+00   1.200000e+01   0.000000e+00
  3.000000e+00   1.300000e+01   0.000000e+00
  3.000000e+00   1.400000e+01   0.000000e+00
  3.000000e+00   1.500000e+01   0.000000e+00
  3.000000e+00   1.600000e+01   0.000000e+00
  3.000000e+00   1.700000e+01   0.000000e+00
  3.000000e+00   1.800000e+01   0.000000e+00
  3.000000e+00   1.900000e+01   0.000000e+00
  3.000000e+00   2.000000e+01   0.000000e+00
  3.000000e+00   2.100000e+01   0.000000e+00
  3.000000e+00   2.200000e+01   0.000000e+00
  3.000000e+00   2.300000e+01   0.000000e+00
  3.000000e+00   2.400000e+01   0.000000e+00
  3.000000e+00   2.500000e+01   0.000000e+00
  3.000000e+00   2.600000e+01   0.000000e+00
[...]
POINT_DATA  4096
SCALARS CON float 1
LOOKUP_TABLE default
  2.492772e-01
  7.847216e-01
  9.662067e-01
  9.995075e-01
  9.999000e-01
  9.984245e-01
  9.643337e-01
  7.819502e-01
  2.432736e-01
  6.080055e-02
  2.465483e-02
  1.891046e-02
  1.917815e-02
  2.080228e-02
  2.288202e-02
  2.518630e-02
  2.753798e-02
  2.966365e-02
  3.113766e-02
  3.142458e-02
  3.007672e-02
  2.706889e-02
  2.319729e-02
  2.034562e-02
  2.175684e-02
  3.962597e-02
  1.217980e-01
  3.854135e-01
  7.581305e-01
  9.266792e-01
  9.767442e-01
  9.888073e-01
  9.883418e-01
  9.784663e-01
  9.514645e-01
  8.922675e-01
  7.779381e-01
  5.703471e-01
  2.995823e-01
  1.266041e-01
  5.663758e-02
  4.171624e-02
  4.504553e-02
  5.290458e-02
  5.974985e-02
  6.255884e-02
  6.029421e-02
  5.416690e-02
  4.676294e-02
  4.135960e-02
  4.322034e-02
  6.826056e-02
  1.569539e-01
  3.196921e-01
  4.823519e-01
  5.260380e-01
  4.168637e-01
  2.392714e-01
  1.005781e-01
  4.013791e-02
  2.228771e-02
  1.927328e-02
  2.587392e-02
  6.390179e-02
  1.981936e-01
  6.789813e-01
  9.279459e-01
  9.873121e-01
  9.960893e-01
  9.873697e-01
  9.310093e-01
  6.910523e-01
  2.035512e-01
  5.916447e-02
  3.533200e-02
  3.840894e-02
  4.646258e-02
  5.432962e-02
  6.158124e-02
  6.880802e-02
  7.625642e-02
  8.315512e-02
  8.739775e-02
  8.607422e-02
  7.701277e-02
  6.052525e-02
  4.114728e-02
  2.757388e-02
  2.178470e-02
  2.399708e-02
  4.762637e-02
  1.436649e-01
  4.161129e-01
  7.660413e-01
  9.259939e-01
  9.761041e-01
  9.896358e-01
  9.916441e-01
  9.879905e-01
  9.773364e-01
  9.521494e-01
  8.882550e-01
  7.197153e-01
  3.742401e-01
  1.260427e-01
  5.973922e-02
  5.094801e-02
  5.525717e-02
  6.083484e-02
  6.386006e-02
  6.299967e-02
  5.862654e-02
  5.267052e-02
  4.962155e-02
  6.397072e-02
  1.515781e-01
  4.510937e-01
  7.637718e-01
  8.833315e-01
  9.030974e-01
  8.477470e-01
  6.588640e-01
  2.962027e-01
  8.775473e-02
  3.072242e-02
  1.945876e-02
  2.334235e-02
  5.312698e-02
  1.143172e-01
  4.069628e-01
  7.742082e-01
  9.162942e-01
  9.487651e-01
  9.251197e-01
  8.042075e-01
  4.638176e-01
  1.498652e-01
  8.361706e-02
  1.030714e-01
  1.521037e-01
  1.999164e-01
  2.364066e-01
  2.651291e-01
  2.913265e-01
  3.173566e-01
  3.406684e-01
  3.528701e-01
  3.419386e-01
  2.976394e-01
  2.172272e-01
  1.176530e-01
  5.266393e-02
  2.883627e-02
  2.172812e-02
  2.473754e-02
  5.071631e-02
  1.484590e-01
  4.129973e-01
  7.572719e-01
  9.214047e-01
  9.752669e-01
  9.913228e-01
  9.959021e-01
  9.962856e-01
  9.926329e-01
  9.778815e-01
  9.164681e-01
  6.890760e-01
  2.427813e-01
  8.919423e-02
  6.200841e-02
  6.353383e-02
  6.932566e-02
  7.281445e-02
  7.191116e-02
  6.684042e-02
  6.015085e-02
  5.944051e-02
  9.382341e-02
  2.773880e-01
  7.403322e-01
  9.356569e-01
  9.831988e-01
  9.887665e-01
  9.708578e-01
  8.901008e-01
  6.104616e-01
  1.892217e-01
  4.950134e-02
  2.061044e-02
  1.935009e-02
  3.612393e-02
  5.103610e-02
  1.511653e-01
  3.763944e-01
  6.240745e-01
  7.173101e-01
  6.614356e-01
  4.510125e-01
  2.213973e-01
  1.499048e-01
  2.316881e-01
  4.003343e-01
  6.002177e-01
  7.263515e-01
  7.840067e-01
  8.114412e-01
  8.283785e-01
  8.416977e-01
  8.523525e-01
  8.579415e-01
  8.521873e-01
  8.164483e-01
  6.897815e-01
  3.837988e-01
  1.262585e-01
  4.631616e-02
  2.556612e-02
  2.014801e-02
  2.384799e-02
  4.944437e-02
  1.419273e-01
  3.911011e-01
  7.370108e-01
  9.120315e-01
  9.723992e-01
  9.919156e-01
  9.985032e-01
  9.999000e-01
  9.976231e-01
  9.684173e-01
  8.171063e-01
  3.318287e-01
  1.133685e-01
  7.094485e-02
  7.014150e-02
  7.606907e-02
  7.976377e-02
  7.849847e-02
  7.250124e-02
  6.502610e-02
  6.654780e-02
  1.192812e-01
  3.805742e-01
  8.482732e-01
  9.765052e-01
  9.996496e-01
  9.999000e-01
  9.948589e-01
  9.610024e-01
  8.069997e-01
  3.468312e-01
  8.356633e-02
  2.416032e-02
  1.566111e-02
  2.213522e-02
  2.332586e-02
  4.863069e-02
  1.020975e-01
  1.702721e-01
  2.058487e-01
  1.903291e-01
  1.433943e-01
  1.375459e-01
  2.929596e-01
  6.284710e-01
  8.286116e-01
  9.123455e-01
  9.471041e-01
  9.614840e-01
  9.682148e-01
  9.724068e-01
  9.758347e-01
  9.788115e-01
  9.808434e-01
  9.805500e-01
  9.719322e-01
  9.217295e-01
  7.127447e-01
  2.473695e-01
  7.310758e-02
  3.207040e-02
  2.124091e-02
  1.812387e-02
  2.213850e-02
  4.580715e-02
  1.290251e-01
  3.541599e-01
  6.974043e-01
  8.889172e-01
  9.611286e-01
  9.869226e-01
  9.956624e-01
  9.942244e-01
  9.636144e-01
  8.090789e-01
  3.288203e-01
  1.144366e-01
  7.277202e-02
  7.212079e-02
  7.805080e-02
  8.159711e-02
  7.999448e-02
  7.349162e-02
  6.553440e-02
  6.745409e-02
  1.255796e-01
  4.101932e-01
  8.684195e-01
  9.817436e-01
  9.999000e-01
  9.999000e-01
  9.985797e-01
  9.823948e-01
  8.986917e-01
  5.607557e-01
  1.416061e-01
  3.247021e-02
  1.346279e-02
  1.404735e-02
  1.285079e-02
  1.998338e-02
  3.181821e-02
  4.580945e-02
  5.464536e-02
  5.705481e-02
  6.889985e-02
  1.597267e-01
  5.263288e-01
  8.642024e-01
  9.625921e-01
  9.866298e-01
  9.930615e-01
  9.954460e-01
  9.966109e-01
  9.974461e-01
  9.983442e-01
  9.993064e-01
  9.999000e-01
  9.999000e-01
  9.999000e-01
  9.764504e-01
  8.348106e-01
  3.353084e-01
  9.397273e-02
  3.743354e-02
  2.340482e-02
  1.825356e-02
  1.649300e-02
  2.041223e-02
  4.093538e-02
  1.099284e-01
  2.930988e-01
  6.067935e-01
  8.229289e-01
  9.190057e-01
  9.519812e-01
  9.471576e-01
  8.815882e-01
  6.482706e-01
  2.334413e-01
  9.219423e-02
  6.719912e-02
  6.913051e-02
  7.491722e-02
  7.806616e-02
  7.637352e-02
  7.000380e-02
  6.191264e-02
  6.189274e-02
  1.096555e-01
  3.574441e-01
  8.393897e-01
  9.732862e-01
  9.975093e-01
  9.999000e-01
  9.991027e-01
  9.901012e-01
  9.433746e-01
  7.306493e-01
  2.285888e-01
  4.944621e-02
  1.373375e-02
  9.668501e-03
  8.198919e-03
  1.125794e-02
  1.537170e-02
  1.980874e-02
  2.397159e-02
  3.045144e-02
  5.632737e-02
  1.846898e-01
  6.477630e-01
  9.284250e-01
  9.908918e-01
  9.999000e-01
  9.999000e-01
  9.999000e-01
  9.995620e-01
  9.990351e-01
  9.987240e-01
  9.988518e-01
  9.993837e-01
  9.999000e-01
  9.994025e-01
  9.745727e-01
  8.306818e-01
  3.324608e-01
  9.420606e-02
  3.858838e-02
  2.492013e-02
  1.974086e-02
  1.688258e-02
  1.604038e-02
  1.968729e-02
  3.574480e-02
  8.430941e-02
  2.008872e-01
  4.054555e-01
  6.335112e-01
  7.386819e-01
  7.248533e-01
  5.734602e-01
  2.999725e-01
  1.169177e-01
  6.505645e-02
  5.848958e-02
  6.290472e-02
  6.829464e-02
  7.124965e-02
  7.018690e-02
  6.471046e-02
  5.673203e-02
  5.350612e-02
  8.310459e-02
  2.595655e-01
  7.462643e-01
  9.458168e-01
  9.903637e-01
  9.984205e-01
  9.987349e-01
  9.933263e-01
  9.661190e-01
  8.351453e-01
  3.830496e-01
  8.963855e-02
  1.990421e-02
  7.961012e-03
  6.307903e-03
  7.511055e-03
  1.008551e-02
  1.307391e-02
  1.665400e-02
  2.344502e-02
  4.780475e-02
  1.609715e-01
  5.825604e-01
  9.038237e-01
  9.834614e-01
  9.973987e-01
  9.976047e-01
  9.955299e-01
  9.927453e-01
  9.893714e-01
  9.855265e-01
  9.817970e-01
  9.791189e-01
  9.765046e-01
  9.659875e-01
  9.116017e-01
  6.956347e-01
  2.411482e-01
  7.439750e-02
  3.564063e-02
  2.566764e-02
  2.186438e-02
  2.016953e-02
  2.006821e-02
  2.146608e-02
  2.566731e-02
  3.720968e-02
  6.474064e-02
  1.168686e-01
  1.851362e-01
  2.271243e-01
  2.194821e-01
  1.656712e-01
  9.723220e-02
  5.829218e-02
  4.865763e-02
  5.067510e-02
  5.580995e-02
  6.119431e-02
  6.600094e-02
  6.856827e-02
  6.565464e-02
  5.701287e-02
  4.864645e-02
  5.908695e-02
  1.570425e-01
  5.326696e-01
  8.693429e-01
  9.698678e-01
  9.930709e-01
  9.973094e-01
  9.948883e-01
  9.801005e-01
  9.098092e-01
  6.225909e-01
  1.865054e-01
  4.220422e-02
  1.098149e-02
  9.138304e-03
  6.245150e-03
  7.480733e-03
  9.976006e-03
  1.331271e-02
  1.891552e-02
  3.483704e-02
  9.978797e-02
  3.515714e-01
  7.521931e-01
  9.152144e-01
  9.585635e-01
  9.657476e-01
  9.620722e-01
  9.533242e-01
  9.393494e-01
  9.184593e-01
  8.919490e-01
  8.665015e-01
  8.423930e-01
  7.964728e-01
  6.591440e-01
  3.576757e-01
  1.222831e-01
  4.986419e-02
  3.168537e-02
  2.680170e-02
  2.657908e-02
  3.148470e-02
  4.218303e-02
  5.414607e-02
  6.362165e-02
  7.147370e-02
  8.015223e-02
  9.039355e-02
  9.759160e-02
  9.251005e-02
  7.614601e-02
  5.838855e-02
  4.508023e-02
  3.979630e-02
  4.081259e-02
  4.467826e-02
  5.013190e-02
  5.900433e-02
  7.587550e-02
  9.705296e-02
  1.043176e-01
  8.932412e-02
  6.338680e-02
  4.930968e-02
  8.260190e-02
  2.676251e-01
  6.802299e-01
  9.091993e-01
  9.763616e-01
  9.928521e-01
  9.949592e-01
  9.882806e-01
  9.553132e-01
  8.115023e-01
  3.967974e-01
  1.110644e-01
  2.816274e-02
  2.849015e-02
  1.109525e-02
  7.596561e-03
  8.451508e-03
  1.104451e-02
  1.519717e-02
  2.370195e-02
  4.983049e-02
  1.407706e-01
  3.700642e-01
  6.379986e-01
  7.618559e-01
  7.926423e-01
  7.855765e-01
  7.575678e-01
  7.061070e-01
  6.213756e-01
  5.092031e-01
  4.076053e-01
  3.367371e-01
  2.765332e-01
  2.007215e-01
  1.114773e-01
  5.513589e-02
  3.537377e-02
  2.993577e-02
  3.081202e-02
  4.191102e-02
  7.865485e-02
  1.484674e-01
  2.191645e-01
  2.661576e-01
  2.919657e-01
  3.016814e-01
  2.926109e-01
  2.542178e-01
  1.804305e-01
  9.778625e-02
  5.211539e-02
  3.741021e-02
  3.500692e-02
  3.683435e-02
  4.068575e-02
  4.908403e-02
  7.490602e-02
  1.490280e-01
  2.569329e-01
  3.074078e-01
  2.636123e-01
  1.600754e-01
  7.474314e-02
  5.339111e-02
  1.126944e-01
  3.512325e-01
  7.354920e-01
  9.209651e-01
  9.771082e-01
  9.913624e-01
  9.917718e-01
  9.789428e-01
  9.212756e-01
  7.078295e-01
  3.059805e-01
  9.391061e-02
  1.116967e-01
  4.162675e-02
  1.863801e-02
  1.208776e-02
  1.149989e-02
  1.355547e-02
  1.777800e-02
  2.680286e-02
  5.017510e-02
  1.034340e-01
  1.763646e-01
  2.255443e-01
  2.403981e-01
  2.313957e-01
  2.098227e-01
  1.816750e-01
  1.498228e-01
  1.191218e-01
  9.662701e-02
  8.303706e-02
  7.233744e-02
  5.907476e-02
  4.401067e-02
  3.414639e-02
  3.054278e-02
  3.146144e-02
  4.223399e-02
  9.095069e-02
  2.577215e-01
  5.408204e-01
  7.353239e-01
  8.077031e-01
  8.304744e-01
  8.346675e-01
  8.214633e-01
  7.637892e-01
  5.878640e-01
  2.860421e-01
  9.926875e-02
  4.606106e-02
  3.518073e-02
  3.484295e-02
  3.915557e-02
  5.702008e-02
  1.351774e-01
  4.047761e-01
  7.109295e-01
  8.059028e-01
  7.488865e-01
  5.032894e-01
  1.896846e-01
  6.547441e-02
  5.404934e-02
  1.331482e-01
  3.887761e-01
  7.482005e-01
  9.197326e-01
  9.743957e-01
  9.888746e-01
  9.881669e-01
  9.696159e-01
  8.952184e-01
  6.686006e-01
  3.076270e-01
  3.942945e-01
  1.790059e-01
  8.061656e-02
  4.128794e-02
  2.542485e-02
  1.948426e-02
  1.839280e-02
  2.018826e-02
  2.527907e-02
  3.499374e-02
  4.704792e-02
  5.459056e-02
  5.544233e-02
  5.170467e-02
  4.623974e-02
  4.103984e-02
  3.724509e-02
  3.538774e-02
  3.503854e-02
  3.482608e-02
  3.388552e-02
  3.227726e-02
  3.049882e-02
  2.955799e-02
  3.028113e-02
  3.599205e-02
  6.500397e-02
  1.980204e-01
  6.046047e-01
  8.670730e-01
  9.487671e-01
  9.699500e-01
  9.751541e-01
  9.759327e-01
  9.726531e-01
  9.549971e-01
  8.802641e-01
  6.236344e-01
  2.031709e-01
  6.675675e-02
  3.816528e-02
  3.415792e-02
  3.954842e-02
  7.148478e-02
  2.255170e-01
  6.950793e-01
  9.207983e-01
  9.689526e-01
  9.483301e-01
  8.153459e-01
  4.155084e-01
  1.134150e-01
  4.293626e-02
  5.150457e-02
  1.378957e-01
  3.844806e-01
  7.306855e-01
  9.066257e-01
  9.671732e-01
  9.848164e-01
  9.848020e-01
  9.652028e-01
  8.953689e-01
  7.087869e-01
  8.042769e-01
  5.952566e-01
  3.410758e-01
  1.889225e-01
  1.057795e-01
  6.060576e-02
  3.733571e-02
  2.584944e-02
  2.184084e-02
  2.149354e-02
  2.196784e-02
  2.158145e-02
  2.019620e-02
  1.875219e-02
  1.869604e-02
  2.182460e-02
  2.959679e-02
  4.039954e-02
  4.743770e-02
  4.536887e-02
  3.803759e-02
  3.237143e-02
  3.001214e-02
  2.972380e-02
  3.161699e-02
  4.149600e-02
  9.111934e-02
  3.135360e-01
  8.037073e-01
  9.623879e-01
  9.941270e-01
  9.986372e-01
  9.990745e-01
  9.991712e-01
  9.989963e-01
  9.950016e-01
  9.639578e-01
  8.046210e-01
  3.072195e-01
  8.922715e-02
  4.178458e-02
  3.400195e-02
  3.985357e-02
  8.077238e-02
  2.799245e-01
  8.020082e-01
  9.700952e-01
  9.999000e-01
  9.940649e-01
  9.240981e-01
  6.218875e-01
  1.686714e-01
  4.792200e-02
  2.894164e-02
  4.752455e-02
  1.273704e-01
  3.430486e-01
  6.781305e-01
  8.741132e-01
  9.511864e-01
  9.774325e-01
  9.816379e-01
  9.676018e-01
  9.196060e-01
  9.503984e-01
  8.983109e-01
  8.045271e-01
  6.568542e-01
  4.390590e-01
  2.538633e-01
  1.335828e-01
  6.204015e-02
  3.167844e-02
  2.194060e-02
  1.841449e-02
  1.628582e-02
  1.486823e-02
  1.527974e-02
  2.069350e-02
  3.802886e-02
  7.542495e-02
  1.257129e-01
  1.521445e-01
  1.278061e-01
  7.903902e-02
  4.626812e-02
  3.425935e-02
  3.136671e-02
  3.302946e-02
  4.497602e-02
  1.060999e-01
  3.748237e-01
  8.584802e-01
  9.817588e-01
  9.999000e-01
  9.999000e-01
  9.999000e-01
  9.999000e-01
  9.999000e-01
  9.999000e-01
  9.805853e-01
  8.519076e-01
  3.564079e-01
  1.004510e-01
  4.352035e-02
  3.367653e-02
  3.870490e-02
  7.789263e-02
  2.703775e-01
  7.900866e-01
  9.663572e-01
  9.999000e-01
  9.967918e-01
  9.356969e-01
  6.574021e-01
  1.820722e-01
  5.050321e-02
  2.435858e-02
  2.337979e-02
  4.156501e-02
  1.046036e-01
  2.704949e-01
  5.692633e-01
  8.052084e-01
  9.181440e-01
  9.626616e-01
  9.769042e-01
  9.732959e-01
  9.774340e-01
  9.734537e-01
  9.572066e-01
  9.240037e-01
  8.582809e-01
  7.319247e-01
  4.752381e-01
  1.997703e-01
  6.759859e-02
  3.022897e-02
  1.995411e-02
  1.614831e-02
  1.511830e-02
  1.957421e-02
  4.148219e-02
  1.135443e-01
  2.725819e-01
  4.702800e-01
  5.563632e-01
  4.497440e-01
  2.346799e-01
  8.918551e-02
  4.425350e-02
  3.389697e-02
  3.386727e-02
  4.445262e-02
  9.973872e-02
  3.450740e-01
  8.330938e-01
  9.729956e-01
  9.979078e-01
  9.999000e-01
  9.999000e-01
  9.999000e-01
  9.999000e-01
  9.975284e-01
  9.704510e-01
  8.218952e-01
  3.236751e-01
  9.293728e-02
  4.216262e-02
  3.334349e-02
  3.683107e-02
  6.473945e-02
  2.024451e-01
  6.485587e-01
  9.015665e-01
  9.646658e-01
  9.577494e-01
  8.584164e-01
  5.064551e-01
  1.409880e-01
  4.491555e-02
  2.386034e-02
  1.893713e-02
  2.064150e-02
  3.377901e-02
  7.570719e-02
  1.826986e-01
  3.974595e-01
  6.807073e-01
  8.519579e-01
  9.341158e-01
  9.675857e-01
  9.514441e-01
  9.781135e-01
  9.867380e-01
  9.862188e-01
  9.761260e-01
  9.429597e-01
  8.293211e-01
  5.045530e-01
  1.484127e-01
  4.711629e-02
  2.353337e-02
  1.711024e-02
  1.767648e-02
  3.409211e-02
  1.091414e-01
  3.519626e-01
  7.071341e-01
  8.726109e-01
  9.096265e-01
  8.424531e-01
  5.741773e-01
  1.815271e-01
  6.202661e-02
  3.729788e-02
  3.429672e-02
  4.099172e-02
  7.729467e-02
  2.422522e-01
  6.921042e-01
  9.108579e-01
  9.680122e-01
  9.808760e-01
  9.838157e-01
  9.838471e-01
  9.807786e-01
  9.668062e-01
  9.050480e-01
  6.731879e-01
  2.263598e-01
  7.211050e-02
  3.987081e-02
  3.600904e-02
  3.968233e-02
  5.401179e-02
  1.161981e-01
  3.385715e-01
  6.527207e-01
  7.843259e-01
  7.670704e-01
  5.818313e-01
  2.497711e-01
  8.227768e-02
  3.728273e-02
  2.521258e-02
  2.040825e-02
  1.796656e-02
  1.851763e-02
  2.582934e-02
  4.915598e-02
  1.083714e-01
  2.402735e-01
  4.822017e-01
  7.392992e-01
  8.848410e-01
  8.136489e-01
  9.292022e-01
  9.758281e-01
  9.937024e-01
  9.997902e-01
  9.941131e-01
  9.481219e-01
  7.379261e-01
  2.358898e-01
  6.535942e-02
  2.717637e-02
  1.867400e-02
  2.482031e-02
  7.262116e-02
  2.721367e-01
  6.957160e-01
  9.159265e-01
  9.795149e-01
  9.897648e-01
  9.553905e-01
  7.740343e-01
  2.665374e-01
  7.859693e-02
  4.046881e-02
  3.496222e-02
  3.769504e-02
  5.377480e-02
  1.244160e-01
  3.601944e-01
  6.688292e-01
  8.115512e-01
  8.597915e-01
  8.755722e-01
  8.755171e-01
  8.589724e-01
  8.073901e-01
  6.553116e-01
  3.404925e-01
  1.157643e-01
  5.223312e-02
  4.447034e-02
  5.590484e-02
  7.052523e-02
  7.897311e-02
  8.922588e-02
  1.320015e-01
  2.150379e-01
  2.709729e-01
  2.596955e-01
  1.841363e-01
  9.546460e-02
  5.349021e-02
  3.988221e-02
  3.336804e-02
  2.730759e-02
  2.169641e-02
  1.797195e-02
  1.677731e-02
  1.953887e-02
  3.061841e-02
  6.094817e-02
  1.353543e-01
  2.978338e-01
  5.827127e-01
  4.253375e-01
  7.311271e-01
  8.994034e-01
  9.671478e-01
  9.929131e-01
  9.975357e-01
  9.650526e-01
  7.845771e-01
  2.633137e-01
  7.163042e-02
  2.867166e-02
  2.189927e-02
  4.361911e-02
  1.621466e-01
  5.478696e-01
  8.773851e-01
  9.755418e-01
  9.989455e-01
  9.999000e-01
  9.738757e-01
  8.227400e-01
  2.991203e-01
  8.534480e-02
  4.281392e-02
  3.691152e-02
  3.743353e-02
  4.174893e-02
  5.996039e-02
  1.170091e-01
  2.141958e-01
  3.052625e-01
  3.733758e-01
  4.109674e-01
  4.106166e-01
  3.714383e-01
  3.003352e-01
  2.064457e-01
  1.096145e-01
  5.702206e-02
  4.961137e-02
  7.989282e-02
  1.563568e-01
  2.311905e-01
  2.481029e-01
  1.997626e-01
  1.260656e-01
  9.141851e-02
  8.567432e-02
  8.067972e-02
  7.038207e-02
  6.592555e-02
  7.430270e-02
  8.068930e-02
  7.407943e-02
  5.570396e-02
  3.568181e-02
  2.359659e-02
  1.798035e-02
  1.557959e-02
  1.566320e-02
  2.014532e-02
  3.526450e-02
  7.745777e-02
  1.876257e-01
  1.251741e-01
  3.126787e-01
  6.260788e-01
  8.355049e-01
  9.273340e-01
  9.500220e-01
  8.998420e-01
  6.622373e-01
  2.081886e-01
  6.072399e-02
  2.797753e-02
  3.093763e-02
  9.105694e-02
  3.409900e-01
  7.795898e-01
  9.498925e-01
  9.912420e-01
  9.999000e-01
  9.968367e-01
  9.655646e-01
  8.007709e-01
  2.787270e-01
  8.227927e-02
  4.593928e-02
  4.217933e-02
  4.177018e-02
  4.073511e-02
  4.179953e-02
  4.977134e-02
  6.548380e-02
  8.228901e-02
  9.609850e-02
  1.041606e-01
  1.040976e-01
  9.548488e-02
  8.032655e-02
  6.191093e-02
  4.591373e-02
  4.376001e-02
  7.555234e-02
  2.109904e-01
  5.166789e-01
  7.301872e-01
  7.594659e-01
  6.224259e-01
  3.133911e-01
  1.111521e-01
  5.685631e-02
  4.976340e-02
  6.689623e-02
  1.281948e-01
  2.247326e-01
  2.815809e-01
  2.647871e-01
  1.846401e-01
  9.011965e-02
  4.056285e-02
  2.364879e-02
  1.779741e-02
  1.516294e-02
  1.406978e-02
  1.544155e-02
  2.331704e-02
  4.958153e-02
  3.616588e-02
  8.628379e-02
  2.069608e-01
  4.180889e-01
  6.395603e-01
  7.144968e-01
  6.156488e-01
  3.298542e-01
  1.090704e-01
  4.175638e-02
  2.928330e-02
  5.754683e-02
  2.067008e-01
  6.230336e-01
  9.022496e-01
  9.778864e-01
  9.947969e-01
  9.967828e-01
  9.876048e-01
  9.367505e-01
  7.110251e-01
  2.238841e-01
  7.614292e-02
  5.562941e-02
  5.735114e-02
  5.487693e-02
  4.775184e-02
  4.122570e-02
  3.713943e-02
  3.553659e-02
  3.540628e-02
  3.603820e-02
  3.682094e-02
  3.701961e-02
  3.615644e-02
  3.437485e-02
  3.259981e-02
  3.372642e-02
  4.927931e-02
  1.303749e-01
  4.494514e-01
  8.297382e-01
  9.482739e-01
  9.594575e-01
  8.902037e-01
  6.180587e-01
  1.906353e-01
  6.798519e-02
  5.848096e-02
  1.258468e-01
  3.760130e-01
  6.880459e-01
  8.027190e-01
  7.825780e-01
  6.104985e-01
  2.788496e-01
  8.758670e-02
  3.522420e-02
  2.228816e-02
  1.821548e-02
  1.615895e-02
  1.487818e-02
  1.494283e-02
  1.927120e-02
  2.006029e-02
  2.899560e-02
  5.531413e-02
  1.072536e-01
  1.730983e-01
  2.054958e-01
  1.757531e-01
  1.019411e-01
  4.879242e-02
  3.074644e-02
  4.179502e-02
  1.289746e-01
  4.405374e-01
  8.273053e-01
  9.581595e-01
  9.887635e-01
  9.945214e-01
  9.911965e-01
  9.694312e-01
  8.695887e-01
  5.184260e-01
  1.570464e-01
  7.894996e-02
  9.129312e-02
  1.096188e-01
  9.574636e-02
  6.708310e-02
  4.814873e-02
  3.742034e-02
  3.124665e-02
  2.807202e-02
  2.736428e-02
  2.845116e-02
  2.986501e-02
  3.023333e-02
  2.948581e-02
  2.922446e-02
  3.319574e-02
  5.676804e-02
  1.756455e-01
  6.162850e-01
  9.242266e-01
  9.953879e-01
  9.999000e-01
  9.590261e-01
  7.576071e-01
  2.471631e-01
  8.167453e-02
  7.812669e-02