# vtk DataFile Version 2.0
time_10.vtk
ASCII
DATASET STRUCTURED_GRID
DIMENSIONS    64    64     1
POINTS    4096 float
  0.000000e+00   0.000000e+00   0.000000e+00
  0.000000e+00   1.000000e+00   0.000000e+00
  0.000000e+00   2.000000e+00   0.000000e+00
  0.000000e+00   3.000000e+00   0.000000e+00
  0.000000e+00   4.000000e+00   0.000000e+00
  0.000000e+00   5.000000e+00   0.000000e+00
  0.000000e+00   6.000000e+00   0.000000e+00
  0.000000e+00   7.000000e+00   0.000000e+00
  0.000000e+00   8.000000e+00   0.000000e+00
  0.000000e+00   9.000000e+00   0.000000e+00
  0.000000e+00   1.000000e+01   0.000000e+00
  0.000000e+00   1.100000e+01   0.000000e+00
  0.000000e+00   1.200000e+01   0.000000e+00
  0.000000e+00   1.300000e+01   0.000000e+00
  0.000000e+00   1.400000e+01   0.000000e+00
  0.000000e+00   1.500000e+01   0.000000e+00
  0.000000e+00   1.600000e+01   0.000000e+00
  0.000000e+00   1.700000e+01   0.000000e+00
  0.000000e+00   1.800000e+01   0.000000e+00
  0.000000e+00   1.900000e+01   0.000000e+00
  0.000000e+00   2.000000e+01   0.000000e+00
  0.000000e+00   2.100000e+01   0.000000e+00
  0.000000e+00   2.200000e+01   0.000000e+00
  0.000000e+00   2.300000e+01   0.000000e+00
  0.000000e+00   2.400000e+01   0.000000e+00
  0.000000e+00   2.500000e+01   0.000000e+00
  0.000000e+00   2.600000e+01   0.000000e+00
  0.000000e+00   2.700000e+01   0.000000e+00
  0.000000e+00   2.800000e+01   0.000000e+00
  0.000000e+00   2.900000e+01   0.000000e+00
  0.000000e+00   3.000000e+01   0.000000e+00
  0.000000e+00   3.100000e+01   0.000000e+00
  0.000000e+00   3.200000e+01   0.000000e+00
  0.000000e+00   3.300000e+01   0.000000e+00
  0.000000e+00   3.400000e+01   0.000000e+00
  0.000000e+00   3.500000e+01   0.000000e+00
  0.000000e+00   3.600000e+01   0.000000e+00
  0.000000e+00   3.700000e+01   0.000000e+00
  0.000000e+00   3.800000e+01   0.000000e+00
  0.000000e+00   3.900000e+01   0.000000e+00
  0.000000e+00   4.000000e+01   0.000000e+00
  0.000000e+00   4.100000e+01   0.000000e+00
  0.000000e+00   4.200000e+01   0.000000e+00
  0.000000e+00   4.300000e+01   0.000000e+00
  0.000000e+00   4.400000e+01   0.000000e+00
  0.000000e+00   4.500000e+01   0.000000e+00
  0.000000e+00   4.600000e+01   0.000000e+00
  0.000000e+00   4.700000e+01   0.000000e+00
  0.000000e+00   4.800000e+01   0.000000e+00
  0.000000e+00   4.900000e+01   0.000000e+00
  0.000000e+00   5.000000e+01   0.000000e+00
  0.000000e+00   5.100000e+01   0.000000e+00
  0.000000e+00   5.200000e+01   0.000000e+00
  0.000000e+00   5.300000e+01   0.000000e+00
  0.000000e+00   5.400000e+01   0.000000e+00
  0.000000e+00   5.500000e+01   0.000000e+00
  0.000000e+00   5.600000e+01   0.000000e+00
  0.000000e+00   5.700000e+01   0.000000e+00
  0.000000e+00   5.800000e+01   0.000000e+00
  0.000000e+00   5.900000e+01   0.000000e+00
  0.000000e+00   6.000000e+01   0.000000e+00
  0.000000e+00   6.100000e+01   0.000000e+00
  0.000000e+00   6.200000e+01   0.000000e+00
  0.000000e+00   6.300000e+01   0.000000e+00
  1.000000e+00   0.000000e+00   0.000000e+00
  1.000000e+00   1.000000e+00   0.000000e+00
  1.000000e+00   2.000000e+00   0.000000e+00
  1.000000e+00   3.000000e+00   0.000000e+00
  1.000000e+00   4.000000e+00   0.000000e+00
  1.000000e+00   5.000000e+00   0.000000e+00
  1.000000e+00   6.000000e+00   0.000000e+00
  1.000000e+00   7.000000e+00   0.000000e+00
  1.000000e+00   8.000000e+00   0.000000e+00
  1.000000e+00   9.000000e+00   0.000000e+00
  1.000000e+00   1.000000e+01   0.000000e+00
  1.000000e+00   1.100000e+01   0.000000e+00
  1.000000e+00   1.200000e+01   0.000000e+00
  1.000000e+00   1.300000e+01   0.000000e+00
  1.000000e+00   1.400000e+01   0.000000e+00
  1.000000e+00   1.500000e+01   0.000000e+00
  1.000000e+00   1.600000e+01   0.000000e+00
  1.000000e+00   1.700000e+01   0.000000e+00
  1.000000e+00   1.800000e+01   0.000000e+00
  1.000000e+00   1.900000e+01   0.000000e+00
  1.000000e+00   2.000000e+01   0.000000e+00
  1.000000e+00   2.100000e+01   0.000000e+00
  1.000000e+00   2.200000e+01   0.000000e+00
  1.000000e+00   2.300000e+01   0.000000e+00
  1.000000e+00   2.400000e+01   0.000000e+00
  1.000000e+00   2.500000e+01   0.000000e+00
  1.000000e+00   2.600000e+01   0.000000e+00
  1.000000e+00   2.700000e+01   0.000000e+00
  1.000000e+00   2.800000e+01   0.000000e+00
  1.000000e+00   2.900000e+01   0.000000e+00
  1.000000e+00   3.000000e+01   0.000000e+00
  1.000000e+00   3.100000e+01   0.000000e+00
  1.000000e+00   3.200000e+01   0.000000e+00
  1.000000e+00   3.300000e+01   0.000000e+00
  1.000000e+00   3.400000e+01   0.000000e+00
  1.000000e+00   3.500000e+01   0.000000e+00
  1.000000e+00   3.600000e+01   0.000000e+00
  1.000000e+00   3.700000e+01   0.000000e+00
  1.000000e+00   3.800000e+01   0.000000e+00
  1.000000e+00   3.900000e+01   0.000000e+00
  1.000000e+00   4.000000e+01   0.000000e+00
  1.000000e+00   4.100000e+01   0.000000e+00
  1.000000e+00   4.200000e+01   0.000000e+00
  1.000000e+00   4.300000e+01   0.000000e+00
  1.000000e+00   4.400000e+01   0.000000e+00
  1.000000e+00   4.500000e+01   0.000000e+00
  1.000000e+00   4.600000e+01   0.000000e+00
  1.000000e+00   4.700000e+01   0.000000e+00
  1.000000e+00   4.800000e+01   0.000000e+00
  1.000000e+00   4.900000e+01   0.000000e+00
  1.000000e+00   5.000000e+01   0.000000e+00
  1.000000e+00   5.100000e+01   0.000000e+00
  1.000000e+00   5.200000e+01   0.000000e+00
  1.000000e+00   5.300000e+01   0.000000e+00
  1.000000e+00   5.400000e+01   0.000000e+00
  1.000000e+00   5.500000e+01   0.000000e+00
  1.000000e+00   5.600000e+01   0.000000e+00
  1.000000e+00   5.700000e+01   0.000000e+00
  1.000000e+00   5.800000e+01   0.000000e+00
  1.000000e+00   5.900000e+01   0.000000e+00
  1.000000e+00   6.000000e+01   0.000000e+00
  1.000000e+00   6.100000e+01   0.000000e+00
  1.000000e+00   6.200000e+01   0.000000e+00
  1.000000e+00   6.300000e+01   0.000000e+00
  2.000000e+00   0.000000e+00   0.000000e+00
  2.000000e+00   1.000000e+00   0.000000e+00
  2.000000e+00   2.000000e+00   0.000000e+00
  2.000000e+00   3.000000e+00   0.000000e+00
  2.000000e+00   4.000000e+00   0.000000e+00
  2.000000e+00   5.000000e+00   0.000000e+00
  2.000000e+00   6.000000e+00   0.000000e+00
  2.000000e+00   7.000000e+00   0.000000e+00
  2.000000e+00   8.000000e+00   0.000000e+00
  2.000000e+00   9.000000e+00   0.000000e+00
  2.000000e+00   1.000000e+01   0.000000e+00
  2.000000e+00   1.100000e+01   0.000000e+00
  2.000000e+00   1.200000e+01   0.000000e+00
  2.000000e+00   1.300000e+01   0.000000e+00
  2.000000e+00   1.400000e+01   0.000000e+00
  2.000000e+00   1.500000e+01   0.000000e+00
  2.000000e+00   1.600000e+01   0.000000e+00
  2.000000e+00   1.700000e+01   0.000000e+00
  2.000000e+00   1.800000e+01   0.000000e+00
  2.000000e+00   1.900000e+01   0.000000e+00
  2.000000e+00   2.000000e+01   0.000000e+00
  2.000000e+00   2.100000e+01   0.000000e+00
  2.000000e+00   2.200000e+01   0.000000e+00
  2.000000e+00   2.300000e+01   0.000000e+00
  2.000000e+00   2.400000e+01   0.000000e+00
  2.000000e+00   2.500000e+01   0.000000e+00
  2.000000e+00   2.600000e+01   0.000000e+00
  2.000000e+00   2.700000e+01   0.000000e+00
  2.000000e+00   2.800000e+01   0.000000e+00
  2.000000e+00   2.900000e+01   0.000000e+00
  2.000000e+00   3.000000e+01   0.000000e+00
  2.000000e+00   3.100000e+01   0.000000e+00
  2.000000e+00   3.200000e+01   0.000000e+00
  2.000000e+00   3.300000e+01   0.000000e+00
  2.000000e+00   3.400000e+01   0.000000e+00
  2.000000e+00   3.500000e+01   0.000000e+00
  2.000000e+00   3.600000e+01   0.000000e+00
  2.000000e+00   3.700000e+01   0.000000e+00
  2.000000e+00   3.800000e+01   0.000000e+00
  2.000000e+00   3.900000e+01   0.000000e+00
  2.000000e+00   4.000000e+01   0.000000e+00
  2.000000e+00   4.100000e+01   0.000000e+00
  2.000000e+00   4.200000e+01   0.000000e+00
  2.000000e+00   4.300000e+01   0.000000e+00
  2.000000e+00   4.400000e+01   0.000000e+00
  2.000000e+00   4.500000e+01   0.000000e+00
  2.000000e+00   4.600000e+01   0.000000e+00
  2.000000e+00   4.700000e+01   0.000000e+00
  2.000000e+00   4.800000e+01   0.000000e+00
  2.000000e+00   4.900000e+01   0.000000e+00
  2.000000e+00   5.000000e+01   0.000000e+00
  2.000000e+00   5.100000e+01   0.000000e+00
  2.000000e+00   5.200000e+01   0.000000e+00
  2.000000e+00   5.300000e+01   0.000000e+00
  2.000000e+00   5.400000e+01   0.000000e+00
  2.000000e+00   5.500000e+01   0.000000e+00
  2.000000e+00   5.600000e+01   0.000000e+00
  2.000000e+00   5.700000e+01   0.000000e+00
  2.000000e+00   5.800000e+01   0.000000e+00
  2.000000e+00   5.900000e+01   0.000000e+00
  2.000000e+00   6.000000e+01   0.000000e+00
  2.000000e+00   6.100000e+01   0.000000e+00
  2.000000e+00   6.200000e+01   0.000000e+00
  2.000000e+00   6.300000e+01   0.000000e+00
  3.000000e+00   0.000000e+00   0.000000e+00
  3.000000e+00   1.000000e+00   0.000000e+00
  3.000000e+00   2.000000e+00   0.000000e+00
  3.000000e+00   3.000000e+00   0.000000e+00
  3.000000e+00   4.000000e+00   0.000000e+00
  3.000000e+00   5.000000e+00   0.000000e+00
  3.000000e+00   6.000000e+00   0.000000e+00
  3.000000e+00   7.000000e+00   0.000000e+00
  3.000000e+00   8.000000e+00   0.000000e+00
  3.000000e+00   9.000000e+00   0.000000e+00
  3.000000e+00   1.000000e+01   0.000000e+00
  3.000000e+00   1.100000e+01   0.000000e+00
  3.000000e+00   1.200000e+01   0.000000e+00
  3.000000e+00   1.300000e+01   0.000000e+00
  3.000000e+00   1.400000e+01   0.000000e+00
  3.000000e+00   1.500000e+01   0.000000e+00
  3.000000e+00   1.600000e+01   0.000000e+00
  3.000000e+00   1.700000e+01   0.000000e+00
  3.000000e+00   1.800000e+01   0.000000e+00
  3.000000e+00   1.900000e+01   0.000000e+00
  3.000000e+00   2.000000e+01   0.000000e+00
  3.000000e+00   2.100000e+01   0.000000e+00
  3.000000e+00   2.200000e+01   0.000000e+00
  3.000000e+00   2.300000e+01   0.000000e+00
  3.000000e+00   2.400000e+01   0.000000e+00
  3.000000e+00   2.500000e+01   0.000000e+00
  3.000000e+00   2.600000e+01   0.000000e+00
[...]
POINT_DATA  4096
SCALARS CON float 1
LOOKUP_TABLE default
  1.860036e-01
  3.955379e-01
  7.693742e-01
  9.035624e-01
  9.273424e-01
  9.058351e-01
  8.532981e-01
  7.785985e-01
  6.684376e-01
  4.938512e-01
  2.934220e-01
  1.408121e-01
  7.623295e-02
  5.565903e-02
  5.444078e-02
  6.814282e-02
  8.544660e-02
  9.134147e-02
  8.032542e-02
  5.884230e-02
  3.889585e-02
  3.030387e-02
  3.139483e-02
  3.864960e-02
  5.362313e-02
  8.719444e-02
  1.576625e-01
  3.073539e-01
  5.870277e-01
  8.226723e-01
  9.161298e-01
  9.390224e-01
  9.255693e-01
  8.665045e-01
  7.224103e-01
  4.440767e-01
  2.030540e-01
  9.630982e-02
  6.542877e-02
  5.684141e-02
  4.818763e-02
  4.013356e-02
  4.616391e-02
  9.648784e-02
  2.713028e-01
  5.323014e-01
  6.495318e-01
  5.513396e-01
  2.896415e-01
  1.066759e-01
  5.546382e-02
  6.166144e-02
  1.661793e-01
  5.802205e-01
  8.904680e-01
  9.650240e-01
  9.416165e-01
  7.551038e-01
  2.576625e-01
  8.371714e-02
  5.643716e-02
  7.135869e-02
  1.011544e-01
  1.303749e-01
  3.822691e-01
  3.768333e-01
  5.145790e-01
  6.345489e-01
  6.532235e-01
  5.661835e-01
  4.059544e-01
  2.714372e-01
  1.882961e-01
  1.297458e-01
  8.588784e-02
  5.734568e-02
  4.423014e-02
  4.012298e-02
  4.208394e-02
  4.931454e-02
  5.731026e-02
  5.830735e-02
  5.000369e-02
  3.858020e-02
  3.181457e-02
  3.426388e-02
  4.608335e-02
  6.147352e-02
  7.172405e-02
  7.294660e-02
  7.603155e-02
  1.181786e-01
  2.791168e-01
  6.241159e-01
  8.621410e-01
  9.474906e-01
  9.703465e-01
  9.639478e-01
  9.237284e-01
  8.070755e-01
  5.517471e-01
  2.596833e-01
  1.117382e-01
  5.584132e-02
  3.656941e-02
  3.524696e-02
  6.235237e-02
  1.966575e-01
  6.194593e-01
  8.744635e-01
  9.330994e-01
  8.775149e-01
  6.185861e-01
  1.913075e-01
  6.457138e-02
  6.196655e-02
  1.973647e-01
  6.996506e-01
  9.382743e-01
  9.855899e-01
  9.633084e-01
  7.992819e-01
  2.745143e-01
  8.902858e-02
  8.229539e-02
  1.702085e-01
  3.058713e-01
  3.863919e-01
  7.307237e-01
  4.124716e-01
  2.270929e-01
  1.907115e-01
  1.771452e-01
  1.458760e-01
  1.039357e-01
  7.317881e-02
  5.686018e-02
  4.842511e-02
  4.381962e-02
  4.197581e-02
  4.441513e-02
  5.363470e-02
  7.281933e-02
  1.038925e-01
  1.360474e-01
  1.437301e-01
  1.205745e-01
  9.069919e-02
  7.979666e-02
  1.004379e-01
  1.543578e-01
  2.133819e-01
  2.361517e-01
  1.965444e-01
  1.168994e-01
  7.603236e-02
  1.117917e-01
  2.782387e-01
  5.978208e-01
  8.239582e-01
  9.234533e-01
  9.597258e-01
  9.653278e-01
  9.401452e-01
  8.562670e-01
  6.612543e-01
  3.662136e-01
  1.720287e-01
  8.001091e-02
  5.188085e-02
  8.613334e-02
  2.911215e-01
  7.994716e-01
  9.681503e-01
  9.968291e-01
  9.644318e-01
  7.781002e-01
  2.560601e-01
  7.472125e-02
  6.220218e-02
  2.025851e-01
  7.215591e-01
  9.424573e-01
  9.816723e-01
  9.524317e-01
  7.710466e-01
  2.460467e-01
  9.160011e-02
  1.493286e-01
  4.581711e-01
  7.602047e-01
  8.308193e-01
  8.607243e-01
  4.473443e-01
  1.420513e-01
  6.824827e-02
  5.356201e-02
  5.033975e-02
  5.423445e-02
  6.537390e-02
  7.801278e-02
  8.837487e-02
  9.638778e-02
  1.075588e-01
  1.323511e-01
  1.805726e-01
  2.607600e-01
  3.809331e-01
  5.010787e-01
  5.329123e-01
  4.596095e-01
  3.587633e-01
  3.262401e-01
  4.069670e-01
  5.855433e-01
  7.242553e-01
  7.545052e-01
  6.400681e-01
  3.364537e-01
  1.161902e-01
  6.435365e-02
  9.432622e-02
  2.105450e-01
  4.352688e-01
  6.962793e-01
  8.508890e-01
  9.295614e-01
  9.587872e-01
  9.528716e-01
  9.055403e-01
  7.851325e-01
  5.479159e-01
  2.630473e-01
  1.126905e-01
  1.134844e-01
  3.306482e-01
  8.307423e-01
  9.780039e-01
  9.999000e-01
  9.670283e-01
  7.810989e-01
  2.552690e-01
  7.250626e-02
  5.655016e-02
  1.804598e-01
  6.712710e-01
  9.257958e-01
  9.703053e-01
  9.296595e-01
  7.056520e-01
  2.007615e-01
  8.961463e-02
  2.163505e-01
  6.996083e-01
  9.315336e-01
  9.626935e-01
  8.636931e-01
  4.148652e-01
  1.169205e-01
  4.780830e-02
  4.081628e-02
  6.351359e-02
  1.283801e-01
  2.199106e-01
  2.967600e-01
  3.501869e-01
  3.887047e-01
  4.374757e-01
  5.261156e-01
  6.478760e-01
  7.579125e-01
  8.375791e-01
  8.845795e-01
  8.925821e-01
  8.629490e-01
  8.152412e-01
  7.922633e-01
  8.259923e-01
  8.924241e-01
  9.415778e-01
  9.540106e-01
  8.976395e-01
  6.406455e-01
  1.989219e-01
  6.520306e-02
  4.365238e-02
  6.210890e-02
  1.208989e-01
  2.464836e-01
  4.808801e-01
  7.463443e-01
  8.987033e-01
  9.579786e-01
  9.695603e-01
  9.482228e-01
  8.671822e-01
  6.347742e-01
  2.570850e-01
  1.447617e-01
  2.902845e-01
  7.416579e-01
  9.278907e-01
  9.584190e-01
  8.976553e-01
  6.347441e-01
  1.898348e-01
  5.766250e-02
  4.576936e-02
  1.382218e-01
  5.447293e-01
  8.888731e-01
  9.554323e-01
  9.049473e-01
  6.321634e-01
  1.616634e-01
  7.786978e-02
  2.191350e-01
  7.267426e-01
  9.492162e-01
  9.751611e-01
  7.395193e-01
  2.978212e-01
  9.230318e-02
  4.886599e-02
  6.516126e-02
  1.690866e-01
  4.393655e-01
  7.077999e-01
  8.172086e-01
  8.501904e-01
  8.574414e-01
  8.605891e-01
  8.733364e-01
  8.983896e-01
  9.262087e-01
  9.486072e-01
  9.599480e-01
  9.549748e-01
  9.316349e-01
  8.971153e-01
  8.759550e-01
  8.927972e-01
  9.337550e-01
  9.691466e-01
  9.825895e-01
  9.452815e-01
  7.326081e-01
  2.350547e-01
  6.959029e-02
  3.355481e-02
  2.830474e-02
  3.656596e-02
  6.490016e-02
  1.434201e-01
  3.403165e-01
  6.769464e-01
  8.878615e-01
  9.638916e-01
  9.826207e-01
  9.611171e-01
  8.307229e-01
  4.068650e-01
  1.618959e-01
  1.836257e-01
  4.431208e-01
  6.995780e-01
  7.567144e-01
  6.304830e-01
  3.150535e-01
  1.001894e-01
  3.964418e-02
  3.470743e-02
  9.413093e-02
  3.815897e-01
  8.346487e-01
  9.406265e-01
  8.928726e-01
  6.031508e-01
  1.465399e-01
  6.129774e-02
  1.563022e-01
  5.488826e-01
  8.467028e-01
  8.940625e-01
  3.783096e-01
  1.513473e-01
  6.635916e-02
  5.674833e-02
  1.195322e-01
  3.914594e-01
  7.891367e-01
  9.364363e-01
  9.727412e-01
  9.762948e-01
  9.671722e-01
  9.493390e-01
  9.265949e-01
  9.096923e-01
  9.047571e-01
  9.066019e-01
  8.999090e-01
  8.681652e-01
  8.056540e-01
  7.275017e-01
  6.794425e-01
  7.102792e-01
  7.968972e-01
  8.795799e-01
  9.152029e-01
  8.615144e-01
  5.991329e-01
  1.871924e-01
  6.052368e-02
  3.082676e-02
  2.321523e-02
  2.211300e-02
  2.663233e-02
  4.538619e-02
  1.100761e-01
  3.047756e-01
  6.606594e-01
  8.770966e-01
  9.514286e-01
  9.516796e-01
  8.360094e-01
  4.163724e-01
  1.446527e-01
  9.701567e-02
  1.480902e-01
  2.258987e-01
  2.505058e-01
  1.986427e-01
  1.080239e-01
  5.151941e-02
  3.056601e-02
  2.847760e-02
  6.551345e-02
  2.667733e-01
  7.756403e-01
  9.292851e-01
  9.019655e-01
  6.486924e-01
  1.672013e-01
  5.171589e-02
  7.831561e-02
  2.320334e-01
  4.723047e-01
  5.496949e-01
  1.264800e-01
  7.319746e-02
  5.211439e-02
  6.584225e-02
  1.755671e-01
  5.911753e-01
  9.112805e-01
  9.890591e-01
  9.999000e-01
  9.905340e-01
  9.622473e-01
  9.002926e-01
  7.999022e-01
  7.067765e-01
  6.500422e-01
  6.199173e-01
  5.710354e-01
  4.639751e-01
  3.288990e-01
  2.319809e-01
  1.920429e-01
  2.151156e-01
  3.155241e-01
  4.845103e-01
  5.882846e-01
  5.067029e-01
  2.703942e-01
  9.839377e-02
  4.365170e-02
  2.881187e-02
  2.560772e-02
  2.696052e-02
  3.034281e-02
  3.586434e-02
  5.229797e-02
  1.123231e-01
  2.861938e-01
  5.787699e-01
  7.612536e-01
  7.845613e-01
  6.278699e-01
  2.670232e-01
  1.000287e-01
  5.986958e-02
  6.117589e-02
  7.480512e-02
  8.299881e-02
  7.803719e-02
  6.327359e-02
  4.853224e-02
  3.635026e-02
  3.042948e-02
  5.239316e-02
  2.031565e-01
  7.101732e-01
  9.191702e-01
  9.234480e-01
  7.389993e-01
  2.379427e-01
  6.158233e-02
  4.266742e-02
  7.910955e-02
  1.416695e-01
  1.675950e-01
  6.181788e-02
  5.185322e-02
  4.822822e-02
  6.705434e-02
  1.786230e-01
  5.907364e-01
  9.044282e-01
  9.793442e-01
  9.831831e-01
  9.515671e-01
  8.568133e-01
  6.410217e-01
  3.513364e-01
  2.043045e-01
  1.584959e-01
  1.492912e-01
  1.433194e-01
  1.257217e-01
  1.033462e-01
  8.669321e-02
  7.530138e-02
  7.328774e-02
  9.200689e-02
  1.344284e-01
  1.667628e-01
  1.478523e-01
  9.150470e-02
  5.001970e-02
  3.397692e-02
  3.157596e-02
  3.893565e-02
  5.555893e-02
  7.492649e-02
  8.698434e-02
  8.741319e-02
  8.821000e-02
  1.153033e-01
  1.868970e-01
  2.618433e-01
  2.811065e-01
  2.154312e-01
  1.109163e-01
  5.975166e-02
  4.323152e-02
  4.134034e-02
  4.940839e-02
  6.952284e-02
  9.795094e-02
  1.174146e-01
  1.114696e-01
  8.341330e-02
  5.429493e-02
  5.398501e-02
  1.649257e-01
  6.234313e-01
  9.042999e-01
  9.445970e-01
  8.324924e-01
  3.916240e-01
  9.920353e-02
  3.786736e-02
  3.884889e-02
  5.506204e-02
  6.582510e-02
  7.679894e-02
  6.984472e-02
  5.789791e-02
  6.205106e-02
  1.258549e-01
  3.798094e-01
  7.374440e-01
  8.638790e-01
  8.639354e-01
  7.669485e-01
  5.188890e-01
  2.330624e-01
  9.153451e-02
  4.367868e-02
  3.279318e-02
  3.592968e-02
  4.696419e-02
  7.120384e-02
  1.187500e-01
  1.665838e-01
  1.675021e-01
  1.219487e-01
  7.645675e-02
  6.069127e-02
  5.989521e-02
  5.584903e-02
  4.652328e-02
  4.024810e-02
  4.268875e-02
  5.939873e-02
  1.028525e-01
  1.838901e-01
  2.717436e-01
  3.229932e-01
  3.100516e-01
  2.446169e-01
  1.620676e-01
  1.066623e-01
  8.999826e-02
  8.564036e-02
  7.221499e-02
  5.224787e-02
  3.999712e-02
  3.553616e-02
  4.070601e-02
  7.062621e-02
  1.597921e-01
  2.974960e-01
  4.005085e-01
  3.979289e-01
  2.948934e-01
  1.626468e-01
  8.570080e-02
  1.432565e-01
  5.103945e-01
  8.785698e-01
  9.580646e-01
  9.063308e-01
  6.097692e-01
  1.691972e-01
  5.241081e-02
  3.974602e-02
  5.332311e-02
  7.007109e-02
  2.379574e-01
  1.976337e-01
  1.184045e-01
  7.051299e-02
  7.620711e-02
  1.509741e-01
  3.016786e-01
  4.175548e-01
  4.086699e-01
  2.923361e-01
  1.575475e-01
  6.738106e-02
  2.836272e-02
  1.561955e-02
  1.460115e-02
  2.265248e-02
  5.183702e-02
  1.492169e-01
  3.686925e-01
  5.782903e-01
  5.961483e-01
  4.145002e-01
  1.856768e-01
  7.775554e-02
  4.995909e-02
  4.925552e-02
  6.059773e-02
  8.097661e-02
  1.198285e-01
  1.990037e-01
  3.590676e-01
  6.041616e-01
  7.660494e-01
  8.247275e-01
  8.151443e-01
  7.234188e-01
  4.905184e-01
  2.235819e-01
  8.932300e-02
  4.909356e-02
  3.844553e-02
  3.360398e-02
  3.098762e-02
  3.315581e-02
  5.551960e-02
  1.589511e-01
  4.641162e-01
  7.588683e-01
  8.627641e-01
  8.657725e-01
  7.737522e-01
  4.987929e-01
  1.860707e-01
  1.421194e-01
  3.894445e-01
  8.258073e-01
  9.529132e-01
  9.392528e-01
  7.446498e-01
  2.561291e-01
  9.620795e-02
  9.605838e-02
  1.535451e-01
  2.160080e-01
  7.518955e-01
  6.381573e-01
  3.435265e-01
  1.220077e-01
  6.352540e-02
  6.745324e-02
  9.882809e-02
  1.282386e-01
  1.272405e-01
  9.573452e-02
  5.857940e-02
  3.296837e-02
  2.023794e-02
  1.541259e-02
  1.669023e-02
  3.150044e-02
  1.017860e-01
  3.718138e-01
  7.590186e-01
  9.046194e-01
  9.135575e-01
  7.953013e-01
  4.339272e-01
  1.442402e-01
  7.808734e-02
  1.037724e-01
  1.863880e-01
  2.953452e-01
  4.426849e-01
  6.206368e-01
  7.659222e-01
  8.681634e-01
  9.261504e-01
  9.537490e-01
  9.587332e-01
  9.324121e-01
  8.283122e-01
  5.437101e-01
  1.952331e-01
  6.382863e-02
  3.342977e-02
  2.730223e-02
  2.697401e-02
  3.610332e-02
  9.143346e-02
  3.319883e-01
  7.667802e-01
  9.392555e-01
  9.823083e-01
  9.847491e-01
  9.469513e-01
  7.739303e-01
  3.163908e-01
  1.480965e-01
  2.669842e-01
  6.796240e-01
  8.878896e-01
  9.085939e-01
  7.559465e-01
  3.451576e-01
  2.254509e-01
  3.390946e-01
  5.625992e-01
  7.207311e-01
  9.565100e-01
  9.000508e-01
  6.567516e-01
  2.097608e-01
  7.122629e-02
  4.811142e-02
  5.675541e-02
  7.649213e-02
  8.964668e-02
  8.086031e-02
  5.664612e-02
  3.595687e-02
  2.480838e-02
  1.994785e-02
  2.187013e-02
  4.677432e-02
  1.773430e-01
  6.296674e-01
  9.107259e-01
  9.796165e-01
  9.793297e-01
  9.043893e-01
  6.015846e-01
  2.134621e-01
  1.489358e-01
  3.063653e-01
  6.005191e-01
  7.770495e-01
  8.479480e-01
  8.755803e-01
  8.755314e-01
  8.783906e-01
  9.076963e-01
  9.486169e-01
  9.748211e-01
  9.790018e-01
  9.481665e-01
  8.108021e-01
  4.182493e-01
  1.160387e-01
  4.062096e-02
  2.635184e-02
  2.662061e-02
  4.556150e-02
  1.514596e-01
  5.590747e-01
  8.939701e-01
  9.818102e-01
  9.999000e-01
  9.999000e-01
  9.754676e-01
  8.378759e-01
  3.653234e-01
  1.343771e-01
  1.460683e-01
  3.532283e-01
  6.222358e-01
  6.985789e-01
  5.738435e-01
  3.718902e-01
  4.787285e-01
  7.458747e-01
  8.909018e-01
  9.481322e-01
  9.986371e-01
  9.628837e-01
  7.763052e-01
  2.573628e-01
  7.734299e-02
  5.070521e-02
  7.885134e-02
  1.504629e-01
  2.172562e-01
  2.075339e-01
  1.276696e-01
  6.121114e-02
  3.438065e-02
  2.524581e-02
  2.784591e-02
  6.569981e-02
  2.558079e-01
  7.577243e-01
  9.419138e-01
  9.720031e-01
  9.500732e-01
  8.459128e-01
  5.225545e-01
  2.154519e-01
  2.424494e-01
  6.107429e-01
  8.746963e-01
  9.480974e-01
  9.463073e-01
  8.861236e-01
  7.538789e-01
  6.604479e-01
  7.126848e-01
  8.539394e-01
  9.506357e-01
  9.839928e-01
  9.829933e-01
  9.247319e-01
  6.686451e-01
  1.952821e-01
  5.556348e-02
  2.914131e-02
  3.019119e-02
  6.206171e-02
  2.230777e-01
  7.158357e-01
  9.360891e-01
  9.828262e-01
  9.874098e-01
  9.772553e-01
  9.333866e-01
  7.506962e-01
  2.917881e-01
  1.017783e-01
  7.644502e-02
  1.226122e-01
  2.008669e-01
  2.383553e-01
  2.240604e-01
  2.663724e-01
  5.886684e-01
  8.841418e-01
  9.733561e-01
  9.970580e-01
  9.976406e-01
  9.524660e-01
  7.410305e-01
  2.344159e-01
  7.590948e-02
  7.944596e-02
  2.049035e-01
  4.740590e-01
  6.747063e-01
  6.457889e-01
  3.771977e-01
  1.277577e-01
  5.036719e-02
  3.179987e-02
  3.806565e-02
  1.012085e-01
  3.680485e-01
  8.056931e-01
  9.124493e-01
  8.805575e-01
  7.744243e-01
  5.543297e-01
  2.599928e-01
  1.443551e-01
  2.578992e-01
  7.075918e-01
  9.308197e-01
  9.691017e-01
  9.189704e-01
  7.187538e-01
  3.540329e-01
  1.958975e-01
  2.571721e-01
  5.730783e-01
  8.793915e-01
  9.744781e-01
  9.931675e-01
  9.644983e-01
  7.885229e-01
  2.603601e-01
  7.070823e-02
  3.481302e-02
  3.987242e-02
  9.090768e-02
  3.041451e-01
  7.713261e-01
  9.218101e-01
  9.362509e-01
  9.080947e-01
  8.503194e-01
  7.288808e-01
  4.451631e-01
  1.591027e-01
  6.782706e-02
  5.110574e-02
  5.815205e-02
  7.295207e-02
  8.222871e-02
  9.305718e-02
  1.729537e-01
  5.147123e-01
  8.783956e-01
  9.791944e-01
  9.999000e-01
  9.540773e-01
  8.571473e-01
  5.390600e-01
  1.605391e-01
  7.924784e-02
  1.689376e-01
  5.021633e-01
  8.224697e-01
  9.279375e-01
  9.036576e-01
  6.779500e-01
  2.168456e-01
  6.833789e-02
  4.046771e-02
  6.137289e-02
  1.866230e-01
  5.544267e-01
  8.211073e-01
  7.845155e-01
  5.594417e-01
  3.119541e-01
  1.680020e-01
  9.004507e-02
  8.170564e-02
  1.878484e-01
  5.674115e-01
  8.419076e-01
  8.835102e-01
  7.536778e-01
  3.914128e-01
  1.213458e-01
  4.609745e-02
  7.602064e-02
  2.835913e-01
  7.521897e-01
  9.479140e-01
  9.907807e-01
  9.703103e-01
  8.088194e-01
  2.810891e-01
  7.916552e-02
  4.485360e-02
  6.562369e-02
  1.545611e-01
  4.048736e-01
  7.276718e-01
  7.844369e-01
  7.172515e-01
  5.755602e-01
  3.971154e-01
  2.538438e-01
  1.424777e-01
  7.373242e-02
  5.248851e-02
  4.858634e-02
  4.824155e-02
  4.835886e-02
  4.885084e-02
  5.607018e-02
  1.064009e-01
  3.297711e-01
  7.558826e-01
  9.283155e-01
  9.677036e-01
  7.510033e-01
  5.470342e-01
  2.386176e-01
  9.203289e-02
  1.157233e-01
  3.613824e-01
  7.770348e-01
  9.460113e-01
  9.849159e-01
  9.553909e-01
  7.581455e-01
  2.445059e-01
  7.376117e-02
  5.134870e-02
  1.119388e-01
  3.705150e-01
  7.426952e-01
  8.064101e-01
  5.288434e-01
  2.053801e-01
  8.339552e-02
  4.742559e-02
  3.876655e-02
  4.910623e-02
  9.922024e-02
  2.569692e-01
  4.759244e-01
  5.222317e-01
  3.490295e-01
  1.437975e-01
  4.607621e-02
  1.881726e-02
  3.419693e-02
  1.453998e-01
  5.321580e-01
  8.635936e-01
  9.527417e-01
  9.272197e-01
  7.220710e-01
  2.389618e-01
  7.901770e-02
  7.073319e-02
  1.474773e-01
  3.241483e-01
  5.297328e-01
  5.363064e-01
  3.701188e-01
  2.294849e-01
  1.464223e-01
  9.621364e-02
  7.102286e-02
  6.336373e-02
  6.988878e-02
  8.116415e-02
  8.277943e-02
  6.999095e-02
  5.386049e-02
  4.560475e-02
  4.541898e-02
  6.533627e-02
  1.590907e-01
  4.302087e-01
  7.040431e-01
  7.929707e-01
  2.431711e-01
  1.622968e-01
  8.590199e-02
  8.183240e-02
  2.321799e-01
  6.500961e-01
  9.099084e-01
  9.807829e-01
  9.866088e-01
  9.284216e-01
  6.654855e-01
  1.953269e-01
  6.301845e-02
  6.381684e-02
  1.940409e-01
  6.252735e-01
  8.607239e-01
  7.899605e-01
  3.355483e-01
  8.792546e-02
  3.097962e-02
  2.450345e-02
  3.060918e-02
  4.183263e-02
  6.134706e-02
  1.014940e-01
  1.533997e-01
  1.613069e-01
  1.115679e-01
  5.732497e-02
  2.850538e-02
  1.889659e-02
  2.604113e-02
  7.411053e-02
  2.545923e-01
  5.973489e-01
  7.639796e-01
  7.181703e-01
  4.384645e-01
  1.487856e-01
  8.263305e-02
  1.528897e-01
  3.909971e-01
  6.639315e-01
  6.859251e-01
  3.723583e-01
  1.436475e-01
  6.389598e-02
  3.877150e-02
  3.639992e-02
  5.721103e-02
  1.123694e-01
  1.977871e-01
  2.616491e-01
  2.587599e-01
  1.804585e-01
  9.153710e-02
  5.516903e-02
  4.472836e-02
  4.743751e-02
  7.145472e-02
  1.393224e-01
  2.284318e-01
  2.710878e-01
  7.204613e-02
  5.684613e-02
  5.676045e-02
  1.344031e-01
  4.663257e-01
  8.452997e-01
  9.653455e-01
  9.870038e-01
  9.605391e-01
  8.218305e-01
  4.130917e-01
  1.110225e-01
  4.466135e-02
  7.424092e-02
  2.762620e-01
  7.716075e-01
  9.108782e-01
  7.836517e-01
  2.644992e-01
  6.242159e-02
  2.616446e-02
  3.133201e-02
  5.081142e-02
  7.143029e-02
  8.241617e-02
  8.239303e-02
  7.667887e-02
  6.698731e-02
  5.172672e-02
  3.753213e-02
  2.955367e-02
  2.728052e-02
  3.059025e-02
  4.641956e-02
  9.642910e-02
  1.962467e-01
  2.680107e-01
  2.453360e-01
  1.498719e-01
  8.407443e-02
  1.219439e-01
  3.582290e-01
  7.305152e-01
  8.700857e-01
  7.653502e-01
  2.931870e-01
  8.017518e-02
  3.100508e-02
  2.824334e-02
  5.975779e-02
  1.651983e-01
  3.902665e-01
  6.588830e-01
  7.777799e-01
  7.529554e-01
  5.322756e-01
  1.970206e-01
  7.856234e-02
  4.995375e-02
  4.523919e-02
  4.970318e-02
  6.176963e-02
  7.588327e-02
  8.063409e-02
  4.071853e-02
  4.068111e-02
  7.035826e-02
  2.306001e-01
  7.136449e-01
  9.387965e-01
  9.864470e-01
  9.750738e-01
  8.864667e-01
  5.836921e-01
  1.867810e-01
  4.984864e-02
  3.028971e-02
  8.478366e-02
  3.551519e-01
  8.306030e-01
  9.242475e-01
  7.693741e-01
  2.384187e-01
  6.068444e-02
  3.936931e-02
  7.573485e-02
  1.588727e-01
  2.362259e-01
  2.517910e-01
  1.951540e-01
  1.094451e-01
  6.049836e-02
  4.350532e-02
  4.054940e-02
  4.718471e-02
  5.795013e-02
  6.411214e-02
  6.450480e-02
  6.596719e-02
  7.684988e-02
  8.639167e-02
  7.973436e-02
  6.420247e-02
  7.958483e-02
  2.269688e-01
  6.500559e-01
  8.961076e-01
  9.323101e-01
  7.769499e-01
  2.512663e-01
  6.269401e-02
  3.107227e-02
  5.459309e-02
  1.748988e-01
  4.916667e-01
  7.962495e-01
  9.253268e-01
  9.632073e-01
  9.416779e-01
  7.796082e-01
  3.086338e-01
  1.034515e-01
  5.885722e-02
  5.644692e-02
  6.411341e-02
  6.679223e-02
  5.975759e-02
  4.883528e-02
  4.720763e-02
  4.499454e-02
  9.097061e-02
  3.121301e-01
  8.190294e-01
  9.697916e-01
  9.840520e-01
  9.273958e-01
  7.074733e-01
  2.770683e-01
  7.073591e-02
  2.020416e-02
  2.407272e-02
  1.043868e-01
  4.561993e-01
  8.612900e-01
  9.169793e-01
  7.214909e-01
  2.110607e-01
  6.523471e-02
  7.956554e-02
  2.361954e-01
  5.451348e-01
  7.405278e-01
  7.589038e-01
  6.084902e-01
  2.955621e-01
  1.051215e-01
  5.841929e-02
  6.935935e-02
  1.265069e-01
  1.995345e-01
  2.302984e-01
  2.039884e-01
  1.377312e-01
  8.001023e-02
  5.411616e-02
  4.545837e-02
  5.079403e-02
  1.134091e-01
  3.992916e-01
  8.273461e-01
  9.545312e-01
  9.436473e-01
  7.540537e-01
  2.215061e-01
  5.822715e-02
  4.447024e-02
  1.187970e-01