# vtk DataFile Version 2.0
time_10.vtk
ASCII
DATASET STRUCTURED_GRID
DIMENSIONS    64    64     1
POINTS    4096 float
  0.000000e+00   0.000000e+00   0.000000e+00
  0.000000e+00   1.000000e+00   0.000000e+00
  0.000000e+00   2.000000e+00   0.000000e+00
  0.000000e+00   3.000000e+00   0.000000e+00
  0.000000e+00   4.000000e+00   0.000000e+00
  0.000000e+00   5.000000e+00   0.000000e+00
  0.000000e+00   6.000000e+00   0.000000e+00
  0.000000e+00   7.000000e+00   0.000000e+00
  0.000000e+00   8.000000e+00   0.000000e+00
  0.000000e+00   9.000000e+00   0.000000e+00
  0.000000e+00   1.000000e+01   0.000000e+00
  0.000000e+00   1.100000e+01   0.000000e+00
  0.000000e+00   1.200000e+01   0.000000e+00
  0.000000e+00   1.300000e+01   0.000000e+00
  0.000000e+00   1.400000e+01   0.000000e+00
  0.000000e+00   1.500000e+01   0.000000e+00
  0.000000e+00   1.600000e+01   0.000000e+00
  0.000000e+00   1.700000e+01   0.000000e+00
  0.000000e+00   1.800000e+01   0.000000e+00
  0.000000e+00   1.900000e+01   0.000000e+00
  0.000000e+00   2.000000e+01   0.000000e+00
  0.000000e+00   2.100000e+01   0.000000e+00
  0.000000e+00   2.200000e+01   0.000000e+00
  0.000000e+00   2.300000e+01   0.000000e+00
  0.000000e+00   2.400000e+01   0.000000e+00
  0.000000e+00   2.500000e+01   0.000000e+00
  0.000000e+00   2.600000e+01   0.000000e+00
  0.000000e+00   2.700000e+01   0.000000e+00
  0.000000e+00   2.800000e+01   0.000000e+00
  0.000000e+00   2.900000e+01   0.000000e+00
  0.000000e+00   3.000000e+01   0.000000e+00
  0.000000e+00   3.100000e+01   0.000000e+00
  0.000000e+00   3.200000e+01   0.000000e+00
  0.000000e+00   3.300000e+01   0.000000e+00
  0.000000e+00   3.400000e+01   0.000000e+00
  0.000000e+00   3.500000e+01   0.000000e+00
  0.000000e+00   3.600000e+01   0.000000e+00
  0.000000e+00   3.700000e+01   0.000000e+00
  0.000000e+00   3.800000e+01   0.000000e+00
  0.000000e+00   3.900000e+01   0.000000e+00
  0.000000e+00   4.000000e+01   0.000000e+00
  0.000000e+00   4.100000e+01   0.000000e+00
  0.000000e+00   4.200000e+01   0.000000e+00
  0.000000e+00   4.300000e+01   0.000000e+00
  0.000000e+00   4.400000e+01   0.000000e+00
  0.000000e+00   4.500000e+01   0.000000e+00
  0.000000e+00   4.600000e+01   0.000000e+00
  0.000000e+00   4.700000e+01   0.000000e+00
  0.000000e+00   4.800000e+01   0.000000e+00
  0.000000e+00   4.900000e+01   0.000000e+00
  0.000000e+00   5.000000e+01   0.000000e+00
  0.000000e+00   5.100000e+01   0.000000e+00
  0.000000e+00   5.200000e+01   0.000000e+00
  0.000000e+00   5.300000e+01   0.000000e+00
  0.000000e+00   5.400000e+01   0.000000e+00
  0.000000e+00   5.500000e+01   0.000000e+00
  0.000000e+00   5.600000e+01   0.000000e+00
  0.000000e+00   5.700000e+01   0.000000e+00
  0.000000e+00   5.800000e+01   0.000000e+00
  0.000000e+00   5.900000e+01   0.000000e+00
  0.000000e+00   6.000000e+01   0.000000e+00
  0.000000e+00   6.100000e+01   0.000000e+00
  0.000000e+00   6.200000e+01   0.000000e+00
  0.000000e+00   6.300000e+01   0.000000e+00
  1.000000e+00   0.000000e+00   0.000000e+00
  1.000000e+00   1.000000e+00   0.000000e+00
  1.000000e+00   2.000000e+00   0.000000e+00
  1.000000e+00   3.000000e+00   0.000000e+00
  1.000000e+00   4.000000e+00   0.000000e+00
  1.000000e+00   5.000000e+00   0.000000e+00
  1.000000e+00   6.000000e+00   0.000000e+00
  1.000000e+00   7.000000e+00   0.000000e+00
  1.000000e+00   8.000000e+00   0.000000e+00
  1.000000e+00   9.000000e+00   0.000000e+00
  1.000000e+00   1.000000e+01   0.000000e+00
  1.000000e+00   1.100000e+01   0.000000e+00
  1.000000e+00   1.200000e+01   0.000000e+00
  1.000000e+00   1.300000e+01   0.000000e+00
  1.000000e+00   1.400000e+01   0.000000e+00
  1.000000e+00   1.500000e+01   0.000000e+00
  1.000000e+00   1.600000e+01   0.000000e+00
  1.000000e+00   1.700000e+01   0.000000e+00
  1.000000e+00   1.800000e+01   0.000000e+00
  1.000000e+00   1.900000e+01   0.000000e+00
  1.000000e+00   2.000000e+01   0.000000e+00
  1.000000e+00   2.100000e+01   0.000000e+00
  1.000000e+00   2.200000e+01   0.000000e+00
  1.000000e+00   2.300000e+01   0.000000e+00
  1.000000e+00   2.400000e+01   0.000000e+00
  1.000000e+00   2.500000e+01   0.000000e+00
  1.000000e+00   2.600000e+01   0.000000e+00
  1.000000e+00   2.700000e+01   0.000000e+00
  1.000000e+00   2.800000e+01   0.000000e+00
  1.000000e+00   2.900000e+01   0.000000e+00
  1.000000e+00   3.000000e+01   0.000000e+00
  1.000000e+00   3.100000e+01   0.000000e+00
  1.000000e+00   3.200000e+01   0.000000e+00
  1.000000e+00   3.300000e+01   0.000000e+00
  1.000000e+00   3.400000e+01   0.000000e+00
  1.000000e+00   3.500000e+01   0.000000e+00
  1.000000e+00   3.600000e+01   0.000000e+00
  1.000000e+00   3.700000e+01   0.000000e+00
  1.000000e+00   3.800000e+01   0.000000e+00
  1.000000e+00   3.900000e+01   0.000000e+00
  1.000000e+00   4.000000e+01   0.000000e+00
  1.000000e+00   4.100000e+01   0.000000e+00
  1.000000e+00   4.200000e+01   0.000000e+00
  1.000000e+00   4.300000e+01   0.000000e+00
  1.000000e+00   4.400000e+01   0.000000e+00
  1.000000e+00   4.500000e+01   0.000000e+00
  1.000000e+00   4.600000e+01   0.000000e+00
  1.000000e+00   4.700000e+01   0.000000e+00
  1.000000e+00   4.800000e+01   0.000000e+00
  1.000000e+00   4.900000e+01   0.000000e+00
  1.000000e+00   5.000000e+01   0.000000e+00
  1.000000e+00   5.100000e+01   0.000000e+00
  1.000000e+00   5.200000e+01   0.000000e+00
  1.000000e+00   5.300000e+01   0.000000e+00
  1.000000e+00   5.400000e+01   0.000000e+00
  1.000000e+00   5.500000e+01   0.000000e+00
  1.000000e+00   5.600000e+01   0.000000e+00
  1.000000e+00   5.700000e+01   0.000000e+00
  1.000000e+00   5.800000e+01   0.000000e+00
  1.000000e+00   5.900000e+01   0.000000e+00
  1.000000e+00   6.000000e+01   0.000000e+00
  1.000000e+00   6.100000e+01   0.000000e+00
  1.000000e+00   6.200000e+01   0.000000e+00
  1.000000e+00   6.300000e+01   0.000000e+00
  2.000000e+00   0.000000e+00   0.000000e+00
  2.000000e+00   1.000000e+00   0.000000e+00
  2.000000e+00   2.000000e+00   0.000000e+00
  2.000000e+00   3.000000e+00   0.000000e+00
  2.000000e+00   4.000000e+00   0.000000e+00
  2.000000e+00   5.000000e+00   0.000000e+00
  2.000000e+00   6.000000e+00   0.000000e+00
  2.000000e+00   7.000000e+00   0.000000e+00
  2.000000e+00   8.000000e+00   0.000000e+00
  2.000000e+00   9.000000e+00   0.000000e+00
  2.000000e+00   1.000000e+01   0.000000e+00
  2.000000e+00   1.100000e+01   0.000000e+00
  2.000000e+00   1.200000e+01   0.000000e+00
  2.000000e+00   1.300000e+01   0.000000e+00
  2.000000e+00   1.400000e+01   0.000000e+00
  2.000000e+00   1.500000e+01   0.000000e+00
  2.000000e+00   1.600000e+01   0.000000e+00
  2.000000e+00   1.700000e+01   0.000000e+00
  2.000000e+00   1.800000e+01   0.000000e+00
  2.000000e+00   1.900000e+01   0.000000e+00
  2.000000e+00   2.000000e+01   0.000000e+00
  2.000000e+00   2.100000e+01   0.000000e+00
  2.000000e+00   2.200000e+01   0.000000e+00
  2.000000e+00   2.300000e+01   0.000000e+00
  2.000000e+00   2.400000e+01   0.000000e+00
  2.000000e+00   2.500000e+01   0.000000e+00
  2.000000e+00   2.600000e+01   0.000000e+00
  2.000000e+00   2.700000e+01   0.000000e+00
  2.000000e+00   2.800000e+01   0.000000e+00
  2.000000e+00   2.900000e+01   0.000000e+00
  2.000000e+00   3.000000e+01   0.000000e+00
  2.000000e+00   3.100000e+01   0.000000e+00
  2.000000e+00   3.200000e+01   0.000000e+00
  2.000000e+00   3.300000e+01   0.000000e+00
  2.000000e+00   3.400000e+01   0.000000e+00
  2.000000e+00   3.500000e+01   0.000000e+00
  2.000000e+00   3.600000e+01   0.000000e+00
  2.000000e+00   3.700000e+01   0.000000e+00
  2.000000e+00   3.800000e+01   0.000000e+00
  2.000000e+00   3.900000e+01   0.000000e+00
  2.000000e+00   4.000000e+01   0.000000e+00
  2.000000e+00   4.100000e+01   0.000000e+00
  2.000000e+00   4.200000e+01   0.000000e+00
  2.000000e+00   4.300000e+01   0.000000e+00
  2.000000e+00   4.400000e+01   0.000000e+00
  2.000000e+00   4.500000e+01   0.000000e+00
  2.000000e+00   4.600000e+01   0.000000e+00
  2.000000e+00   4.700000e+01   0.000000e+00
  2.000000e+00   4.800000e+01   0.000000e+00
  2.000000e+00   4.900000e+01   0.000000e+00
  2.000000e+00   5.000000e+01   0.000000e+00
  2.000000e+00   5.100000e+01   0.000000e+00
  2.000000e+00   5.200000e+01   0.000000e+00
  2.000000e+00   5.300000e+01   0.000000e+00
  2.000000e+00   5.400000e+01   0.000000e+00
  2.000000e+00   5.500000e+01   0.000000e+00
  2.000000e+00   5.600000e+01   0.000000e+00
  2.000000e+00   5.700000e+01   0.000000e+00
  2.000000e+00   5.800000e+01   0.000000e+00
  2.000000e+00   5.900000e+01   0.000000e+00
  2.000000e+00   6.000000e+01   0.000000e+00
  2.000000e+00   6.100000e+01   0.000000e+00
  2.000000e+00   6.200000e+01   0.000000e+00
  2.000000e+00   6.300000e+01   0.000000e+00
  3.000000e+00   0.000000e+00   0.000000e+00
  3.000000e+00   1.000000e+00   0.000000e+00
  3.000000e+00   2.000000e+00   0.000000e+00
  3.000000e+00   3.000000e+00   0.000000e+00
  3.000000e+00   4.000000e+00   0.000000e+00
  3.000000e+00   5.000000e+00   0.000000e+00
  3.000000e+00   6.000000e+00   0.000000e+00
  3.000000e+00   7.000000e+00   0.000000e+00
  3.000000e+00   8.000000e+00   0.000000e+00
  3.000000e+00   9.000000e+00   0.000000e+00
  3.000000e+00   1.000000e+01   0.000000e+00
  3.000000e+00   1.100000e+01   0.000000e+00
  3.000000e+00   1.200000e+01   0.000000e+00
  3.000000e+00   1.300000e+01   0.000000e+00
  3.000000e+00   1.400000e+01   0.000000e+00
  3.000000e+00   1.500000e+01   0.000000e+00
  3.000000e+00   1.600000e+01   0.000000e+00
  3.000000e+00   1.700000e+01   0.000000e+00
  3.000000e+00   1.800000e+01   0.000000e+00
  3.000000e+00   1.900000e+01   0.000000e+00
  3.000000e+00   2.000000e+01   0.000000e+00
  3.000000e+00   2.100000e+01   0.000000e+00
  3.000000e+00   2.200000e+01   0.000000e+00
  3.000000e+00   2.300000e+01   0.000000e+00
  3.000000e+00   2.400000e+01   0.000000e+00
  3.000000e+00   2.500000e+01   0.000000e+00
  3.000000e+00   2.600000e+01   0.000000e+00
[...]
POINT_DATA  4096
SCALARS CON float 1
LOOKUP_TABLE default
  1.803214e-01
  3.388000e-01
  7.195805e-01
  8.918964e-01
  9.327175e-01
  9.120259e-01
  8.309659e-01
  6.713529e-01
  4.540047e-01
  3.248924e-01
  2.837128e-01
  2.406563e-01
  1.552123e-01
  8.855365e-02
  6.412453e-02
  6.771517e-02
  8.438608e-02
  9.564465e-02
  8.937519e-02
  6.840094e-02
  4.706567e-02
  3.813079e-02
  4.063001e-02
  5.123139e-02
  7.116823e-02
  1.039244e-01
  1.558709e-01
  2.661092e-01
  5.219003e-01
  8.055441e-01
  9.205260e-01
  9.487079e-01
  9.370701e-01
  8.764379e-01
  7.151545e-01
  4.054364e-01
  1.700910e-01
  8.187420e-02
  6.328009e-02
  6.155098e-02
  5.568823e-02
  4.643956e-02
  5.156882e-02
  1.073437e-01
  3.057659e-01
  5.866278e-01
  6.966495e-01
  6.004931e-01
  3.214770e-01
  1.152215e-01
  5.591475e-02
  5.369972e-02
  1.255285e-01
  4.520921e-01
  8.560396e-01
  9.602924e-01
  9.426568e-01
  7.581564e-01
  2.652122e-01
  9.745670e-02
  7.838209e-02
  1.057335e-01
  1.436252e-01
  1.595722e-01
  3.317426e-01
  2.672367e-01
  4.039844e-01
  5.965934e-01
  6.720885e-01
  6.024903e-01
  4.068043e-01
  2.253530e-01
  1.246294e-01
  8.727206e-02
  8.069597e-02
  7.610539e-02
  6.186616e-02
  4.854393e-02
  4.503780e-02
  5.257463e-02
  6.637707e-02
  7.334291e-02
  6.529715e-02
  4.899535e-02
  3.823917e-02
  4.022298e-02
  5.586191e-02
  7.763345e-02
  9.170600e-02
  9.010939e-02
  8.356970e-02
  1.110535e-01
  2.561221e-01
  6.105012e-01
  8.617920e-01
  9.492166e-01
  9.718183e-01
  9.637379e-01
  9.151631e-01
  7.686334e-01
  4.627842e-01
  1.990286e-01
  8.540970e-02
  4.673123e-02
  3.483416e-02
  3.614589e-02
  6.513786e-02
  2.069638e-01
  6.463472e-01
  8.907498e-01
  9.440773e-01
  8.925294e-01
  6.456396e-01
  2.019132e-01
  6.454725e-02
  5.202442e-02
  1.499431e-01
  5.773432e-01
  9.058129e-01
  9.753641e-01
  9.489751e-01
  7.559040e-01
  2.464034e-01
  9.071528e-02
  1.023312e-01
  2.238686e-01
  3.801671e-01
  4.194778e-01
  6.699555e-01
  3.027908e-01
  1.723630e-01
  1.785368e-01
  1.906767e-01
  1.646185e-01
  1.113450e-01
  6.964306e-02
  5.131305e-02
  4.854286e-02
  4.988491e-02
  4.807607e-02
  4.430446e-02
  4.685496e-02
  6.633284e-02
  1.115424e-01
  1.715838e-01
  1.972952e-01
  1.642947e-01
  1.041018e-01
  7.198637e-02
  8.783865e-02
  1.576472e-01
  2.457227e-01
  2.869022e-01
  2.453224e-01
  1.475144e-01
  8.490287e-02
  1.108737e-01
  2.743129e-01
  5.919052e-01
  8.160324e-01
  9.156004e-01
  9.526297e-01
  9.569903e-01
  9.220486e-01
  8.058122e-01
  5.571923e-01
  2.772898e-01
  1.275840e-01
  6.377324e-02
  4.707263e-02
  8.417723e-02
  2.903249e-01
  8.038767e-01
  9.703732e-01
  9.983905e-01
  9.686467e-01
  7.925529e-01
  2.685885e-01
  7.632723e-02
  5.553172e-02
  1.684849e-01
  6.433844e-01
  9.211155e-01
  9.711722e-01
  9.235345e-01
  6.650095e-01
  1.917650e-01
  8.521748e-02
  1.709110e-01
  5.309984e-01
  8.000982e-01
  8.325976e-01
  8.342105e-01
  3.771558e-01
  1.213505e-01
  6.725452e-02
  5.922409e-02
  5.659550e-02
  5.855957e-02
  7.219712e-02
  9.562463e-02
  1.179753e-01
  1.225923e-01
  1.094109e-01
  1.005598e-01
  1.250920e-01
  2.143357e-01
  3.920817e-01
  5.975136e-01
  6.673462e-01
  5.701466e-01
  3.601962e-01
  2.401072e-01
  2.979806e-01
  5.347796e-01
  7.409584e-01
  8.001862e-01
  7.185522e-01
  4.266658e-01
  1.440633e-01
  7.078789e-02
  9.500943e-02
  2.034976e-01
  4.073165e-01
  6.580492e-01
  8.167070e-01
  9.052360e-01
  9.414770e-01
  9.322335e-01
  8.651182e-01
  7.080102e-01
  4.386611e-01
  2.097222e-01
  9.843573e-02
  1.054425e-01
  3.156770e-01
  8.225363e-01
  9.758042e-01
  9.999000e-01
  9.709284e-01
  7.971603e-01
  2.708503e-01
  7.655906e-02
  5.556487e-02
  1.684761e-01
  6.411681e-01
  9.176709e-01
  9.608671e-01
  8.820184e-01
  5.148698e-01
  1.347549e-01
  8.030885e-02
  2.334705e-01
  7.390548e-01
  9.428910e-01
  9.602978e-01
  8.670348e-01
  4.030669e-01
  1.150752e-01
  4.952993e-02
  4.255037e-02
  6.310037e-02
  1.270930e-01
  2.366133e-01
  3.586121e-01
  4.532870e-01
  4.698031e-01
  4.205731e-01
  3.883401e-01
  4.611665e-01
  6.486422e-01
  8.145924e-01
  9.042780e-01
  9.251854e-01
  8.807413e-01
  7.558528e-01
  6.216924e-01
  6.779372e-01
  8.433270e-01
  9.394658e-01
  9.665656e-01
  9.282091e-01
  7.182732e-01
  2.404530e-01
  7.569025e-02
  4.685835e-02
  6.159158e-02
  1.103872e-01
  2.090184e-01
  3.905588e-01
  6.592864e-01
  8.491629e-01
  9.349696e-01
  9.530361e-01
  9.245625e-01
  8.259115e-01
  5.871023e-01
  2.521863e-01
  1.388119e-01
  2.713046e-01
  7.212797e-01
  9.216060e-01
  9.590528e-01
  9.072384e-01
  6.638701e-01
  2.056895e-01
  6.295997e-02
  4.942971e-02
  1.450672e-01
  5.625150e-01
  8.947353e-01
  9.486636e-01
  8.461037e-01
  3.982707e-01
  9.928404e-02
  7.173485e-02
  2.400331e-01
  7.685350e-01
  9.623855e-01
  9.805635e-01
  7.934499e-01
  3.317682e-01
  1.008314e-01
  5.113151e-02
  6.385716e-02
  1.594715e-01
  4.170894e-01
  7.058017e-01
  8.369498e-01
  8.809432e-01
  8.792575e-01
  8.468269e-01
  8.103316e-01
  8.162658e-01
  8.757482e-01
  9.348334e-01
  9.664946e-01
  9.674966e-01
  9.260343e-01
  8.114409e-01
  6.696085e-01
  7.149621e-01
  8.720124e-01
  9.606336e-01
  9.889898e-01
  9.655694e-01
  7.962536e-01
  2.836945e-01
  8.282643e-02
  3.867289e-02
  3.150491e-02
  3.684246e-02
  5.601083e-02
  1.078237e-01
  2.475285e-01
  5.489228e-01
  8.303281e-01
  9.451948e-01
  9.742129e-01
  9.555175e-01
  8.425340e-01
  4.815475e-01
  1.808444e-01
  1.761235e-01
  4.170834e-01
  6.865001e-01
  7.601141e-01
  6.523279e-01
  3.431990e-01
  1.105204e-01
  4.406853e-02
  3.963927e-02
  1.066487e-01
  4.186533e-01
  8.475198e-01
  9.364432e-01
  8.381192e-01
  3.851120e-01
  9.348928e-02
  5.941150e-02
  1.850162e-01
  6.376571e-01
  8.981076e-01
  9.335500e-01
  5.103680e-01
  1.933334e-01
  7.601909e-02
  5.917837e-02
  1.187057e-01
  3.820922e-01
  7.746814e-01
  9.313303e-01
  9.739580e-01
  9.798814e-01
  9.656831e-01
  9.273711e-01
  8.644846e-01
  8.164353e-01
  8.346949e-01
  8.877083e-01
  9.210259e-01
  9.064178e-01
  8.056608e-01
  5.656686e-01
  3.425735e-01
  3.920008e-01
  6.695940e-01
  8.675903e-01
  9.367262e-01
  9.088579e-01
  6.990354e-01
  2.365677e-01
  7.460931e-02
  3.777858e-02
  2.943937e-02
  2.809276e-02
  3.012388e-02
  3.970533e-02
  7.893617e-02
  2.165590e-01
  5.525373e-01
  8.438851e-01
  9.504537e-01
  9.679100e-01
  8.962639e-01
  5.767020e-01
  1.916233e-01
  1.029967e-01
  1.425290e-01
  2.217746e-01
  2.546016e-01
  2.095184e-01
  1.176712e-01
  5.614089e-02
  3.338503e-02
  3.197830e-02
  7.268902e-02
  2.823909e-01
  7.738873e-01
  9.229606e-01
  8.616448e-01
  4.837883e-01
  1.210364e-01
  4.974801e-02
  9.964519e-02
  3.202737e-01
  6.251724e-01
  6.990457e-01
  1.694046e-01
  8.904043e-02
  5.769394e-02
  6.989054e-02
  1.848695e-01
  6.102010e-01
  9.117182e-01
  9.868129e-01
  9.980268e-01
  9.868554e-01
  9.461727e-01
  8.382350e-01
  6.412394e-01
  4.657562e-01
  4.570065e-01
  5.692148e-01
  6.550250e-01
  6.163498e-01
  4.219253e-01
  2.081022e-01
  1.084445e-01
  1.242875e-01
  2.666611e-01
  5.209177e-01
  6.818424e-01
  6.380554e-01
  3.765962e-01
  1.325269e-01
  5.573976e-02
  3.781717e-02
  3.674994e-02
  4.271158e-02
  4.964353e-02
  5.074041e-02
  5.273970e-02
  8.780823e-02
  2.322013e-01
  5.499381e-01
  7.901508e-01
  8.573842e-01
  7.726452e-01
  4.338847e-01
  1.462558e-01
  6.930586e-02
  6.257162e-02
  7.590709e-02
  8.685530e-02
  8.479077e-02
  7.016792e-02
  5.305486e-02
  3.872581e-02
  3.194764e-02
  5.217911e-02
  1.894541e-01
  6.588409e-01
  9.015907e-01
  8.990213e-01
  6.517232e-01
  1.944146e-01
  5.628752e-02
  4.980540e-02
  1.046555e-01
  1.933873e-01
  2.264219e-01
  7.151680e-02
  5.768654e-02
  5.274272e-02
  7.406781e-02
  2.009666e-01
  6.440071e-01
  9.190511e-01
  9.815228e-01
  9.813654e-01
  9.422157e-01
  8.163598e-01
  5.207850e-01
  2.290341e-01
  1.185786e-01
  1.088657e-01
  1.460163e-01
  1.862131e-01
  1.907141e-01
  1.508596e-01
  1.018548e-01
  7.208315e-02
  6.580480e-02
  9.165148e-02
  1.541223e-01
  2.065723e-01
  1.942138e-01
  1.232561e-01
  6.439259e-02
  4.360307e-02
  4.361319e-02
  6.177352e-02
  1.045442e-01
  1.553536e-01
  1.664255e-01
  1.315660e-01
  9.463904e-02
  1.043229e-01
  1.920892e-01
  3.286001e-01
  4.130387e-01
  3.483963e-01
  1.855489e-01
  8.366402e-02
  5.053571e-02
  4.467058e-02
  5.336309e-02
  7.842955e-02
  1.155057e-01
  1.398290e-01
  1.281753e-01
  9.054931e-02
  5.568426e-02
  4.855548e-02
  1.292504e-01
  4.975190e-01
  8.667531e-01
  9.275046e-01
  7.943782e-01
  3.428254e-01
  8.990843e-02
  3.874814e-02
  4.398963e-02
  6.470920e-02
  7.745627e-02
  7.801397e-02
  7.498263e-02
  6.476550e-02
  7.113475e-02
  1.502033e-01
  4.514623e-01
  7.788812e-01
  8.804609e-01
  8.682747e-01
  7.541181e-01
  4.730556e-01
  1.902118e-01
  6.844586e-02
  3.389660e-02
  3.233707e-02
  4.563654e-02
  6.867467e-02
  1.076034e-01
  1.685122e-01
  2.103211e-01
  1.987889e-01
  1.444177e-01
  8.950722e-02
  6.988238e-02
  7.000828e-02
  6.660874e-02
  5.547708e-02
  4.731214e-02
  5.015750e-02
  7.370348e-02
  1.504300e-01
  3.299829e-01
  5.391445e-01
  5.957983e-01
  4.776116e-01
  2.866098e-01
  1.528166e-01
  1.025965e-01
  1.088921e-01
  1.247644e-01
  1.115418e-01
  7.622547e-02
  5.088027e-02
  4.087549e-02
  4.465374e-02
  7.760793e-02
  1.845099e-01
  3.554271e-01
  4.786379e-01
  4.596739e-01
  3.235174e-01
  1.719561e-01
  8.132435e-02
  1.039411e-01
  3.622655e-01
  8.272877e-01
  9.436662e-01
  8.911916e-01
  5.782598e-01
  1.610420e-01
  5.005080e-02
  3.666968e-02
  4.878052e-02
  6.710184e-02
  2.303845e-01
  2.104105e-01
  1.369410e-01
  8.284325e-02
  9.095342e-02
  1.842777e-01
  3.526932e-01
  4.681135e-01
  4.394445e-01
  2.999748e-01
  1.537883e-01
  6.620091e-02
  3.244764e-02
  2.338102e-02
  2.498013e-02
  3.648735e-02
  7.623097e-02
  2.112512e-01
  4.849682e-01
  6.750627e-01
  6.760466e-01
  4.954948e-01
  2.310334e-01
  9.079996e-02
  5.401594e-02
  5.166057e-02
  6.273947e-02
  8.139302e-02
  1.140013e-01
  1.914988e-01
  3.896683e-01
  6.985134e-01
  8.612532e-01
  8.999477e-01
  8.589133e-01
  7.190625e-01
  4.345465e-01
  1.876808e-01
  8.481972e-02
  5.818409e-02
  5.017272e-02
  4.270997e-02
  3.684549e-02
  3.667625e-02
  5.676428e-02
  1.595734e-01
  4.924809e-01
  7.899044e-01
  8.864902e-01
  8.834560e-01
  7.909534e-01
  5.278443e-01
  1.999538e-01
  1.179745e-01
  2.877109e-01
  7.757029e-01
  9.429714e-01
  9.389904e-01
  7.485713e-01
  2.575642e-01
  8.531466e-02
  7.194297e-02
  1.168373e-01
  1.869986e-01
  7.360442e-01
  6.672840e-01
  3.997726e-01
  1.462725e-01
  7.472157e-02
  7.887206e-02
  1.140690e-01
  1.449954e-01
  1.409598e-01
  1.054456e-01
  6.670198e-02
  4.197590e-02
  3.115751e-02
  2.799902e-02
  3.053696e-02
  4.834180e-02
  1.346382e-01
  4.600429e-01
  8.150978e-01
  9.285807e-01
  9.329198e-01
  8.375282e-01
  5.222716e-01
  1.711776e-01
  8.200382e-02
  1.006374e-01
  1.782925e-01
  2.743334e-01
  3.827889e-01
  5.223443e-01
  6.815131e-01
  8.239933e-01
  9.062416e-01
  9.473188e-01
  9.544537e-01
  9.179197e-01
  7.850421e-01
  4.679081e-01
  1.682074e-01
  6.237765e-02
  3.772343e-02
  3.193406e-02
  3.032998e-02
  3.615723e-02
  7.969164e-02
  2.853137e-01
  7.545269e-01
  9.416443e-01
  9.855056e-01
  9.873645e-01
  9.544721e-01
  8.086702e-01
  3.856318e-01
  1.545912e-01
  2.279697e-01
  6.483620e-01
  8.951566e-01
  9.317084e-01
  7.982841e-01
  3.585722e-01
  1.781504e-01
  2.373351e-01
  4.286724e-01
  6.478990e-01
  9.532490e-01
  9.149830e-01
  7.081600e-01
  2.440613e-01
  8.248963e-02
  5.386333e-02
  6.256292e-02
  8.610373e-02
  1.057926e-01
  1.018935e-01
  7.687876e-02
  5.165018e-02
  3.921820e-02
  3.478836e-02
  3.713495e-02
  6.273103e-02
  1.985958e-01
  6.625529e-01
  9.197059e-01
  9.803901e-01
  9.824308e-01
  9.266476e-01
  6.860205e-01
  2.497931e-01
  1.524670e-01
  2.914135e-01
  5.786902e-01
  7.596239e-01
  8.169781e-01
  8.024586e-01
  7.194055e-01
  6.863027e-01
  7.618334e-01
  8.815404e-01
  9.519603e-01
  9.664702e-01
  9.301717e-01
  7.719882e-01
  3.757418e-01
  1.088147e-01
  4.222358e-02
  2.914805e-02
  2.812084e-02
  4.051563e-02
  1.163241e-01
  4.397426e-01
  8.593957e-01
  9.742959e-01
  9.981254e-01
  9.999000e-01
  9.841174e-01
  8.847846e-01
  4.938860e-01
  1.692952e-01
  1.494977e-01
  3.732065e-01
  6.920676e-01
  7.917442e-01
  6.860496e-01
  3.951477e-01
  3.728094e-01
  6.342807e-01
  8.340716e-01
  9.263846e-01
  9.989110e-01
  9.705962e-01
  8.064669e-01
  2.892113e-01
  8.668987e-02
  5.345681e-02
  8.178435e-02
  1.686132e-01
  2.639829e-01
  2.773765e-01
  1.929551e-01
  9.382658e-02
  5.380026e-02
  4.200108e-02
  4.360062e-02
  7.537485e-02
  2.367120e-01
  7.157948e-01
  9.169068e-01
  9.566638e-01
  9.469220e-01
  8.702635e-01
  6.073042e-01
  2.508447e-01
  2.467567e-01
  5.965364e-01
  8.665885e-01
  9.447595e-01
  9.353718e-01
  8.143339e-01
  4.627579e-01
  2.594339e-01
  3.269349e-01
  6.479659e-01
  8.991953e-01
  9.703156e-01
  9.747187e-01
  9.112363e-01
  6.425461e-01
  1.889869e-01
  5.652729e-02
  3.123354e-02
  3.116868e-02
  5.520032e-02
  1.765779e-01
  5.977681e-01
  8.962851e-01
  9.662523e-01
  9.778748e-01
  9.752905e-01
  9.499276e-01
  8.237901e-01
  4.148740e-01
  1.373900e-01
  8.756198e-02
  1.432830e-01
  2.637722e-01
  3.409756e-01
  3.138977e-01
  2.783232e-01
  4.876226e-01
  8.330811e-01
  9.562042e-01
  9.919429e-01
  9.997233e-01
  9.598525e-01
  7.665296e-01
  2.549694e-01
  7.885722e-02
  7.200047e-02
  1.902377e-01
  4.975671e-01
  7.361513e-01
  7.561242e-01
  5.466604e-01
  1.992503e-01
  7.827154e-02
  5.129687e-02
  5.625482e-02
  1.050629e-01
  2.852598e-01
  6.795901e-01
  8.114466e-01
  8.043962e-01
  7.430794e-01
  5.783252e-01
  3.054826e-01
  1.625092e-01
  2.640533e-01
  7.105226e-01
  9.343646e-01
  9.771855e-01
  9.339141e-01
  7.119718e-01
  2.413305e-01
  7.867104e-02
  1.026157e-01
  3.518022e-01
  8.152410e-01
  9.617252e-01
  9.889802e-01
  9.607328e-01
  7.829837e-01
  2.608996e-01
  7.257448e-02
  3.759203e-02
  4.466641e-02
  9.656214e-02
  2.836566e-01
  6.959969e-01
  8.701290e-01
  8.862267e-01
  8.624389e-01
  8.305515e-01
  7.584757e-01
  5.460219e-01
  2.230769e-01
  8.766751e-02
  5.912391e-02
  6.873826e-02
  9.566472e-02
  1.163307e-01
  1.223564e-01
  1.717217e-01
  4.434168e-01
  8.523010e-01
  9.737409e-01
  9.999000e-01
  9.604599e-01
  8.714329e-01
  5.688441e-01
  1.679539e-01
  6.803282e-02
  1.233046e-01
  4.164233e-01
  8.041894e-01
  9.380912e-01
  9.384387e-01
  7.768743e-01
  2.968803e-01
  9.964850e-02
  6.413003e-02
  9.328208e-02
  2.159976e-01
  4.469211e-01
  6.289728e-01
  5.074696e-01
  3.355946e-01
  2.384253e-01
  1.664700e-01
  1.020309e-01
  8.924217e-02
  1.987903e-01
  6.024200e-01
  8.776930e-01
  9.298420e-01
  8.386129e-01
  4.923055e-01
  1.318001e-01
  3.606886e-02
  4.787158e-02
  2.132340e-01
  7.249615e-01
  9.463664e-01
  9.922939e-01
  9.737699e-01
  8.198063e-01
  2.923285e-01
  8.301608e-02
  5.052210e-02
  8.580318e-02
  2.143535e-01
  4.800141e-01
  7.055167e-01
  6.872753e-01
  5.523338e-01
  4.082800e-01
  3.162938e-01
  2.490321e-01
  1.685876e-01
  9.137266e-02
  6.043413e-02
  5.423371e-02
  5.559478e-02
  5.904186e-02
  6.201124e-02
  6.733351e-02
  1.077255e-01
  3.054612e-01
  7.473129e-01
  9.304029e-01
  9.719206e-01
  7.719343e-01
  5.762499e-01
  2.527152e-01
  8.490927e-02
  7.431901e-02
  2.311700e-01
  6.781770e-01
  9.227295e-01
  9.814284e-01
  9.628360e-01
  7.986320e-01
  2.981611e-01
  9.962112e-02
  8.150253e-02
  1.840129e-01
  5.093488e-01
  7.432622e-01
  6.966277e-01
  3.141457e-01
  1.185055e-01
  6.646491e-02
  5.132708e-02
  4.529842e-02
  5.447457e-02
  1.110123e-01
  3.100996e-01
  6.016814e-01
  6.864059e-01
  5.267490e-01
  2.240207e-01
  6.791396e-02
  2.661864e-02
  3.673531e-02
  1.468643e-01
  5.722768e-01
  8.959600e-01
  9.736375e-01
  9.518638e-01
  7.691955e-01
  2.629931e-01
  8.402219e-02
  7.929698e-02
  1.996692e-01
  4.867468e-01
  6.908900e-01
  6.011754e-01
  3.223117e-01
  1.614970e-01
  9.720018e-02
  7.424233e-02
  6.674889e-02
  6.502884e-02
  7.101985e-02
  8.402668e-02
  9.076684e-02
  8.211150e-02
  6.509950e-02
  5.475504e-02
  5.261380e-02
  6.981806e-02
  1.608809e-01
  4.443852e-01
  7.232828e-01
  8.105503e-01
  2.616618e-01
  1.727904e-01
  8.457013e-02
  5.833378e-02
  1.333683e-01
  4.422832e-01
  8.374818e-01
  9.616705e-01
  9.779721e-01
  9.201664e-01
  6.677265e-01
  2.131218e-01
  7.866228e-02
  9.616774e-02
  2.954693e-01
  7.575073e-01
  8.959380e-01
  7.770647e-01
  2.828816e-01
  7.727588e-02
  3.559728e-02
  3.209836e-02
  3.759519e-02
  4.764089e-02
  6.827959e-02
  1.193725e-01
  1.964672e-01
  2.215412e-01
  1.653083e-01
  8.340978e-02
  3.971874e-02
  2.568314e-02
  3.258703e-02
  9.082103e-02
  3.272451e-01
  7.162133e-01
  8.577761e-01
  8.170703e-01
  5.528494e-01
  1.777064e-01
  8.060916e-02
  1.430605e-01
  4.327211e-01
  7.582434e-01
  7.809347e-01
  4.444031e-01
  1.439495e-01
  5.099824e-02
  2.835063e-02
  2.883062e-02
  4.688922e-02
  9.395055e-02
  1.783376e-01
  2.590451e-01
  2.825813e-01
  2.218468e-01
  1.199318e-01
  6.849884e-02
  5.197154e-02
  5.240285e-02
  7.636184e-02
  1.495826e-01
  2.469609e-01
  2.934047e-01
  7.708005e-02
  5.817610e-02
  4.999333e-02
  9.533842e-02
  3.089914e-01
  7.236300e-01
  9.268626e-01
  9.710708e-01
  9.417579e-01
  7.810588e-01
  3.769096e-01
  1.082308e-01
  5.153138e-02
  9.821564e-02
  3.610177e-01
  8.395675e-01
  9.387355e-01
  8.103879e-01
  2.879533e-01
  7.546400e-02
  3.622995e-02
  4.096802e-02
  6.162904e-02
  8.274080e-02
  9.229741e-02
  9.072372e-02
  8.660089e-02
  7.949457e-02
  6.345255e-02
  4.515309e-02
  3.437664e-02
  3.057757e-02
  3.385508e-02
  5.567577e-02
  1.339803e-01
  3.012612e-01
  4.273533e-01
  3.797874e-01
  2.129892e-01
  9.162728e-02
  9.159165e-02
  2.661372e-01
  6.892488e-01
  8.714430e-01
  7.710841e-01
  3.044229e-01
  7.975767e-02
  2.799368e-02
  2.358515e-02
  4.668601e-02
  1.243713e-01
  3.121670e-01
  5.965151e-01
  7.644890e-01
  7.846594e-01
  6.342466e-01
  2.803193e-01
  1.061827e-01
  5.999390e-02
  5.088314e-02
  5.455240e-02
  6.738456e-02
  8.279904e-02
  8.765409e-02
  4.231167e-02
  4.151971e-02
  6.937423e-02
  2.132875e-01
  6.244832e-01
  8.943840e-01
  9.669532e-01
  9.561335e-01
  8.404352e-01
  4.884396e-01
  1.526827e-01
  4.425891e-02
  3.144246e-02
  9.092401e-02
  3.779690e-01
  8.512004e-01
  9.385921e-01
  7.970787e-01
  2.720938e-01
  7.552987e-02
  4.982013e-02
  9.059295e-02
  1.851923e-01
  2.676052e-01
  2.774654e-01
  2.069486e-01
  1.111437e-01
  6.234018e-02
  4.643854e-02
  4.386206e-02
  4.951045e-02
  5.689083e-02
  5.990714e-02
  6.165432e-02
  7.397989e-02
  1.064707e-01
  1.328455e-01
  1.183476e-01
  7.947255e-02
  6.651264e-02
  1.492192e-01
  4.827494e-01
  8.362296e-01
  8.989400e-01
  7.079763e-01
  2.147667e-01
  5.529686e-02
  2.952467e-02
  5.007101e-02
  1.455152e-01
  3.959872e-01
  7.281455e-01
  8.970817e-01
  9.557109e-01
  9.533963e-01
  8.440406e-01
  4.383110e-01
  1.453912e-01
  7.269421e-02
  6.527089e-02
  7.290885e-02
  7.435119e-02
  6.471981e-02
  5.155984e-02
  4.801754e-02
  5.039766e-02
  1.150511e-01
  3.922874e-01
  8.295260e-01
  9.626728e-01
  9.728258e-01
  8.982490e-01
  6.205904e-01
  2.118570e-01
  5.372231e-02
  1.650429e-02
  2.080206e-02
  8.818724e-02
  3.955436e-01
  8.457285e-01
  9.157206e-01
  7.280360e-01
  2.258882e-01
  7.360949e-02
  8.959339e-02
  2.648472e-01
  5.950425e-01
  7.727960e-01
  7.786439e-01
  6.128074e-01
  2.780983e-01
  9.910775e-02
  6.007452e-02
  7.658759e-02
  1.329682e-01
  1.908592e-01
  2.054649e-01
  1.743542e-01
  1.213092e-01
  8.317612e-02
  6.558191e-02
  5.537831e-02
  5.166206e-02
  8.819025e-02
  2.861401e-01
  7.255347e-01
  9.136437e-01
  8.936363e-01
  6.071122e-01
  1.600331e-01
  4.876303e-02
  4.856655e-02
  1.291424e-01