# vtk DataFile Version 2.0
time_10.vtk
ASCII
DATASET STRUCTURED_GRID
DIMENSIONS    64    64     1
POINTS    4096 float
  0.000000e+00   0.000000e+00   0.000000e+00
  0.000000e+00   1.000000e+00   0.000000e+00
  0.000000e+00   2.000000e+00   0.000000e+00
  0.000000e+00   3.000000e+00   0.000000e+00
  0.000000e+00   4.000000e+00   0.000000e+00
  0.000000e+00   5.000000e+00   0.000000e+00
  0.000000e+00   6.000000e+00   0.000000e+00
  0.000000e+00   7.000000e+00   0.000000e+00
  0.000000e+00   8.000000e+00   0.000000e+00
  0.000000e+00   9.000000e+00   0.000000e+00
  0.000000e+00   1.000000e+01   0.000000e+00
  0.000000e+00   1.100000e+01   0.000000e+00
  0.000000e+00   1.200000e+01   0.000000e+00
  0.000000e+00   1.300000e+01   0.000000e+00
  0.000000e+00   1.400000e+01   0.000000e+00
  0.000000e+00   1.500000e+01   0.000000e+00
  0.000000e+00   1.600000e+01   0.000000e+00
  0.000000e+00   1.700000e+01   0.000000e+00
  0.000000e+00   1.800000e+01   0.000000e+00
  0.000000e+00   1.900000e+01   0.000000e+00
  0.000000e+00   2.000000e+01   0.000000e+00
  0.000000e+00   2.100000e+01   0.000000e+00
  0.000000e+00   2.200000e+01   0.000000e+00
  0.000000e+00   2.300000e+01   0.000000e+00
  0.000000e+00   2.400000e+01   0.000000e+00
  0.000000e+00   2.500000e+01   0.000000e+00
  0.000000e+00   2.600000e+01   0.000000e+00
  0.000000e+00   2.700000e+01   0.000000e+00
  0.000000e+00   2.800000e+01   0.000000e+00
  0.000000e+00   2.900000e+01   0.000000e+00
  0.000000e+00   3.000000e+01   0.000000e+00
  0.000000e+00   3.100000e+01   0.000000e+00
  0.000000e+00   3.200000e+01   0.000000e+00
  0.000000e+00   3.300000e+01   0.000000e+00
  0.000000e+00   3.400000e+01   0.000000e+00
  0.000000e+00   3.500000e+01   0.000000e+00
  0.000000e+00   3.600000e+01   0.000000e+00
  0.000000e+00   3.700000e+01   0.000000e+00
  0.000000e+00   3.800000e+01   0.000000e+00
  0.000000e+00   3.900000e+01   0.000000e+00
  0.000000e+00   4.000000e+01   0.000000e+00
  0.000000e+00   4.100000e+01   0.000000e+00
  0.000000e+00   4.200000e+01   0.000000e+00
  0.000000e+00   4.300000e+01   0.000000e+00
  0.000000e+00   4.400000e+01   0.000000e+00
  0.000000e+00   4.500000e+01   0.000000e+00
  0.000000e+00   4.600000e+01   0.000000e+00
  0.000000e+00   4.700000e+01   0.000000e+00
  0.000000e+00   4.800000e+01   0.000000e+00
  0.000000e+00   4.900000e+01   0.000000e+00
  0.000000e+00   5.000000e+01   0.000000e+00
  0.000000e+00   5.100000e+01   0.000000e+00
  0.000000e+00   5.200000e+01   0.000000e+00
  0.000000e+00   5.300000e+01   0.000000e+00
  0.000000e+00   5.400000e+01   0.000000e+00
  0.000000e+00   5.500000e+01   0.000000e+00
  0.000000e+00   5.600000e+01   0.000000e+00
  0.000000e+00   5.700000e+01   0.000000e+00
  0.000000e+00   5.800000e+01   0.000000e+00
  0.000000e+00   5.900000e+01   0.000000e+00
  0.000000e+00   6.000000e+01   0.000000e+00
  0.000000e+00   6.100000e+01   0.000000e+00
  0.000000e+00   6.200000e+01   0.000000e+00
  0.000000e+00   6.300000e+01   0.000000e+00
  1.000000e+00   0.000000e+00   0.000000e+00
  1.000000e+00   1.000000e+00   0.000000e+00
  1.000000e+00   2.000000e+00   0.000000e+00
  1.000000e+00   3.000000e+00   0.000000e+00
  1.000000e+00   4.000000e+00   0.000000e+00
  1.000000e+00   5.000000e+00   0.000000e+00
  1.000000e+00   6.000000e+00   0.000000e+00
  1.000000e+00   7.000000e+00   0.000000e+00
  1.000000e+00   8.000000e+00   0.000000e+00
  1.000000e+00   9.000000e+00   0.000000e+00
  1.000000e+00   1.000000e+01   0.000000e+00
  1.000000e+00   1.100000e+01   0.000000e+00
  1.000000e+00   1.200000e+01   0.000000e+00
  1.000000e+00   1.300000e+01   0.000000e+00
  1.000000e+00   1.400000e+01   0.000000e+00
  1.000000e+00   1.500000e+01   0.000000e+00
  1.000000e+00   1.600000e+01   0.000000e+00
  1.000000e+00   1.700000e+01   0.000000e+00
  1.000000e+00   1.800000e+01   0.000000e+00
  1.000000e+00   1.900000e+01   0.000000e+00
  1.000000e+00   2.000000e+01   0.000000e+00
  1.000000e+00   2.100000e+01   0.000000e+00
  1.000000e+00   2.200000e+01   0.000000e+00
  1.000000e+00   2.300000e+01   0.000000e+00
  1.000000e+00   2.400000e+01   0.000000e+00
  1.000000e+00   2.500000e+01   0.000000e+00
  1.000000e+00   2.600000e+01   0.000000e+00
  1.000000e+00   2.700000e+01   0.000000e+00
  1.000000e+00   2.800000e+01   0.000000e+00
  1.000000e+00   2.900000e+01   0.000000e+00
  1.000000e+00   3.000000e+01   0.000000e+00
  1.000000e+00   3.100000e+01   0.000000e+00
  1.000000e+00   3.200000e+01   0.000000e+00
  1.000000e+00   3.300000e+01   0.000000e+00
  1.000000e+00   3.400000e+01   0.000000e+00
  1.000000e+00   3.500000e+01   0.000000e+00
  1.000000e+00   3.600000e+01   0.000000e+00
  1.000000e+00   3.700000e+01   0.000000e+00
  1.000000e+00   3.800000e+01   0.000000e+00
  1.000000e+00   3.900000e+01   0.000000e+00
  1.000000e+00   4.000000e+01   0.000000e+00
  1.000000e+00   4.100000e+01   0.000000e+00
  1.000000e+00   4.200000e+01   0.000000e+00
  1.000000e+00   4.300000e+01   0.000000e+00
  1.000000e+00   4.400000e+01   0.000000e+00
  1.000000e+00   4.500000e+01   0.000000e+00
  1.000000e+00   4.600000e+01   0.000000e+00
  1.000000e+00   4.700000e+01   0.000000e+00
  1.000000e+00   4.800000e+01   0.000000e+00
  1.000000e+00   4.900000e+01   0.000000e+00
  1.000000e+00   5.000000e+01   0.000000e+00
  1.000000e+00   5.100000e+01   0.000000e+00
  1.000000e+00   5.200000e+01   0.000000e+00
  1.000000e+00   5.300000e+01   0.000000e+00
  1.000000e+00   5.400000e+01   0.000000e+00
  1.000000e+00   5.500000e+01   0.000000e+00
  1.000000e+00   5.600000e+01   0.000000e+00
  1.000000e+00   5.700000e+01   0.000000e+00
  1.000000e+00   5.800000e+01   0.000000e+00
  1.000000e+00   5.900000e+01   0.000000e+00
  1.000000e+00   6.000000e+01   0.000000e+00
  1.000000e+00   6.100000e+01   0.000000e+00
  1.000000e+00   6.200000e+01   0.000000e+00
  1.000000e+00   6.300000e+01   0.000000e+00
  2.000000e+00   0.000000e+00   0.000000e+00
  2.000000e+00   1.000000e+00   0.000000e+00
  2.000000e+00   2.000000e+00   0.000000e+00
  2.000000e+00   3.000000e+00   0.000000e+00
  2.000000e+00   4.000000e+00   0.000000e+00
  2.000000e+00   5.000000e+00   0.000000e+00
  2.000000e+00   6.000000e+00   0.000000e+00
  2.000000e+00   7.000000e+00   0.000000e+00
  2.000000e+00   8.000000e+00   0.000000e+00
  2.000000e+00   9.000000e+00   0.000000e+00
  2.000000e+00   1.000000e+01   0.000000e+00
  2.000000e+00   1.100000e+01   0.000000e+00
  2.000000e+00   1.200000e+01   0.000000e+00
  2.000000e+00   1.300000e+01   0.000000e+00
  2.000000e+00   1.400000e+01   0.000000e+00
  2.000000e+00   1.500000e+01   0.000000e+00
  2.000000e+00   1.600000e+01   0.000000e+00
  2.000000e+00   1.700000e+01   0.000000e+00
  2.000000e+00   1.800000e+01   0.000000e+00
  2.000000e+00   1.900000e+01   0.000000e+00
  2.000000e+00   2.000000e+01   0.000000e+00
  2.000000e+00   2.100000e+01   0.000000e+00
  2.000000e+00   2.200000e+01   0.000000e+00
  2.000000e+00   2.300000e+01   0.000000e+00
  2.000000e+00   2.400000e+01   0.000000e+00
  2.000000e+00   2.500000e+01   0.000000e+00
  2.000000e+00   2.600000e+01   0.000000e+00
  2.000000e+00   2.700000e+01   0.000000e+00
  2.000000e+00   2.800000e+01   0.000000e+00
  2.000000e+00   2.900000e+01   0.000000e+00
  2.000000e+00   3.000000e+01   0.000000e+00
  2.000000e+00   3.100000e+01   0.000000e+00
  2.000000e+00   3.200000e+01   0.000000e+00
  2.000000e+00   3.300000e+01   0.000000e+00
  2.000000e+00   3.400000e+01   0.000000e+00
  2.000000e+00   3.500000e+01   0.000000e+00
  2.000000e+00   3.600000e+01   0.000000e+00
  2.000000e+00   3.700000e+01   0.000000e+00
  2.000000e+00   3.800000e+01   0.000000e+00
  2.000000e+00   3.900000e+01   0.000000e+00
  2.000000e+00   4.000000e+01   0.000000e+00
  2.000000e+00   4.100000e+01   0.000000e+00
  2.000000e+00   4.200000e+01   0.000000e+00
  2.000000e+00   4.300000e+01   0.000000e+00
  2.000000e+00   4.400000e+01   0.000000e+00
  2.000000e+00   4.500000e+01   0.000000e+00
  2.000000e+00   4.600000e+01   0.000000e+00
  2.000000e+00   4.700000e+01   0.000000e+00
  2.000000e+00   4.800000e+01   0.000000e+00
  2.000000e+00   4.900000e+01   0.000000e+00
  2.000000e+00   5.000000e+01   0.000000e+00
  2.000000e+00   5.100000e+01   0.000000e+00
  2.000000e+00   5.200000e+01   0.000000e+00
  2.000000e+00   5.300000e+01   0.000000e+00
  2.000000e+00   5.400000e+01   0.000000e+00
  2.000000e+00   5.500000e+01   0.000000e+00
  2.000000e+00   5.600000e+01   0.000000e+00
  2.000000e+00   5.700000e+01   0.000000e+00
  2.000000e+00   5.800000e+01   0.000000e+00
  2.000000e+00   5.900000e+01   0.000000e+00
  2.000000e+00   6.000000e+01   0.000000e+00
  2.000000e+00   6.100000e+01   0.000000e+00
  2.000000e+00   6.200000e+01   0.000000e+00
  2.000000e+00   6.300000e+01   0.000000e+00
  3.000000e+00   0.000000e+00   0.000000e+00
  3.000000e+00   1.000000e+00   0.000000e+00
  3.000000e+00   2.000000e+00   0.000000e+00
  3.000000e+00   3.000000e+00   0.000000e+00
  3.000000e+00   4.000000e+00   0.000000e+00
  3.000000e+00   5.000000e+00   0.000000e+00
  3.000000e+00   6.000000e+00   0.000000e+00
  3.000000e+00   7.000000e+00   0.000000e+00
  3.000000e+00   8.000000e+00   0.000000e+00
  3.000000e+00   9.000000e+00   0.000000e+00
  3.000000e+00   1.000000e+01   0.000000e+00
  3.000000e+00   1.100000e+01   0.000000e+00
  3.000000e+00   1.200000e+01   0.000000e+00
  3.000000e+00   1.300000e+01   0.000000e+00
  3.000000e+00   1.400000e+01   0.000000e+00
  3.000000e+00   1.500000e+01   0.000000e+00
  3.000000e+00   1.600000e+01   0.000000e+00
  3.000000e+00   1.700000e+01   0.000000e+00
  3.000000e+00   1.800000e+01   0.000000e+00
  3.000000e+00   1.900000e+01   0.000000e+00
  3.000000e+00   2.000000e+01   0.000000e+00
  3.000000e+00   2.100000e+01   0.000000e+00
  3.000000e+00   2.200000e+01   0.000000e+00
  3.000000e+00   2.300000e+01   0.000000e+00
  3.000000e+00   2.400000e+01   0.000000e+00
  3.000000e+00   2.500000e+01   0.000000e+00
  3.000000e+00   2.600000e+01   0.000000e+00
[...]
POINT_DATA  4096
SCALARS CON float 1
LOOKUP_TABLE default
  7.750580e-01
  9.490248e-01
  9.909067e-01
  9.978158e-01
  9.940929e-01
  9.813614e-01
  9.453673e-01
  8.274571e-01
  4.952381e-01
  1.451646e-01
  4.697419e-02
  2.508418e-02
  1.974358e-02
  1.883389e-02
  2.111117e-02
  2.791622e-02
  3.955906e-02
  5.065700e-02
  5.303140e-02
  4.765985e-02
  4.207502e-02
  3.831559e-02
  3.478589e-02
  3.096243e-02
  3.010144e-02
  4.523997e-02
  1.186604e-01
  3.479186e-01
  7.057341e-01
  8.926100e-01
  9.475548e-01
  9.443366e-01
  9.098987e-01
  8.564854e-01
  8.012657e-01
  7.302300e-01
  5.932815e-01
  3.796371e-01
  2.013256e-01
  9.089684e-02
  4.250069e-02
  2.802773e-02
  2.905503e-02
  4.750780e-02
  1.037361e-01
  1.901929e-01
  2.331313e-01
  1.967917e-01
  1.117573e-01
  5.920398e-02
  4.656989e-02
  7.173625e-02
  2.118890e-01
  6.325551e-01
  8.695081e-01
  9.181500e-01
  8.584443e-01
  6.299450e-01
  2.393529e-01
  7.089834e-02
  3.405318e-02
  3.862185e-02
  9.293956e-02
  3.244326e-01
  8.854229e-01
  9.834048e-01
  9.962358e-01
  9.861655e-01
  9.587613e-01
  8.984584e-01
  7.648975e-01
  4.946983e-01
  2.034086e-01
  7.048555e-02
  3.493143e-02
  2.625734e-02
  2.351626e-02
  2.255506e-02
  2.357499e-02
  2.811251e-02
  3.764181e-02
  5.102976e-02
  6.435454e-02
  7.536752e-02
  8.329214e-02
  8.551820e-02
  7.847256e-02
  6.193530e-02
  4.276430e-02
  3.441397e-02
  4.974303e-02
  1.244238e-01
  3.405871e-01
  6.848613e-01
  8.817580e-01
  9.505864e-01
  9.677277e-01
  9.666871e-01
  9.594449e-01
  9.443884e-01
  9.064605e-01
  8.140121e-01
  6.050355e-01
  2.860316e-01
  9.992525e-02
  4.574963e-02
  4.805043e-02
  1.124557e-01
  3.415463e-01
  6.462757e-01
  7.459935e-01
  6.388190e-01
  3.222603e-01
  1.104272e-01
  5.940042e-02
  9.329547e-02
  3.119156e-01
  8.086257e-01
  9.642518e-01
  9.898450e-01
  9.682590e-01
  8.541040e-01
  4.759510e-01
  1.282854e-01
  4.681715e-02
  5.089553e-02
  1.385667e-01
  4.890692e-01
  8.687898e-01
  9.619067e-01
  9.614628e-01
  9.153318e-01
  8.056741e-01
  5.994566e-01
  3.315756e-01
  1.625305e-01
  8.332731e-02
  6.046279e-02
  5.903660e-02
  6.073575e-02
  6.117198e-02
  6.173346e-02
  6.660793e-02
  8.284597e-02
  1.184657e-01
  1.710683e-01
  2.261307e-01
  2.752030e-01
  3.116893e-01
  3.222762e-01
  2.906458e-01
  2.115498e-01
  1.104011e-01
  5.058934e-02
  3.419127e-02
  4.730412e-02
  1.134110e-01
  3.036835e-01
  6.391742e-01
  8.612056e-01
  9.493987e-01
  9.792226e-01
  9.887354e-01
  9.902729e-01
  9.843182e-01
  9.614144e-01
  8.851592e-01
  6.499669e-01
  2.481440e-01
  8.658918e-02
  7.899342e-02
  2.171090e-01
  6.683871e-01
  9.098070e-01
  9.572460e-01
  8.936026e-01
  6.009104e-01
  1.827490e-01
  7.347866e-02
  1.059082e-01
  3.658252e-01
  8.571862e-01
  9.814944e-01
  9.999000e-01
  9.924290e-01
  9.344640e-01
  6.809588e-01
  1.924656e-01
  5.914349e-02
  5.492484e-02
  1.428598e-01
  4.871662e-01
  6.564669e-01
  7.944741e-01
  7.739048e-01
  6.270276e-01
  3.721183e-01
  1.900664e-01
  1.037479e-01
  8.864513e-02
  1.226540e-01
  1.813121e-01
  2.278457e-01
  2.527250e-01
  2.626562e-01
  2.701104e-01
  2.930029e-01
  3.587511e-01
  4.915329e-01
  6.477551e-01
  7.526919e-01
  8.088435e-01
  8.373687e-01
  8.438158e-01
  8.109184e-01
  6.710825e-01
  3.442009e-01
  1.086207e-01
  4.168571e-02
  2.860463e-02
  4.002838e-02
  9.421674e-02
  2.533106e-01
  5.698546e-01
  8.285290e-01
  9.417751e-01
  9.821012e-01
  9.959472e-01
  9.999000e-01
  9.962108e-01
  9.710587e-01
  8.540471e-01
  4.596262e-01
  1.459472e-01
  1.056016e-01
  2.746639e-01
  7.749235e-01
  9.623027e-01
  9.913091e-01
  9.368034e-01
  6.716234e-01
  2.025231e-01
  7.473952e-02
  1.038969e-01
  3.669492e-01
  8.601793e-01
  9.812732e-01
  9.999000e-01
  9.967512e-01
  9.588764e-01
  7.691971e-01
  2.329143e-01
  6.437699e-02
  4.710539e-02
  9.811893e-02
  2.970989e-01
  2.191946e-01
  2.788576e-01
  2.550716e-01
  1.796492e-01
  1.025916e-01
  6.706551e-02
  8.754945e-02
  2.048491e-01
  4.261613e-01
  6.534319e-01
  7.634041e-01
  8.003611e-01
  8.096527e-01
  8.120555e-01
  8.197276e-01
  8.420846e-01
  8.807345e-01
  9.214732e-01
  9.497498e-01
  9.665839e-01
  9.764268e-01
  9.802049e-01
  9.711113e-01
  9.079243e-01
  6.511345e-01
  1.976692e-01
  5.832983e-02
  2.718467e-02
  2.175103e-02
  3.137760e-02
  7.372790e-02
  2.015979e-01
  4.856017e-01
  7.855491e-01
  9.278825e-01
  9.790541e-01
  9.964132e-01
  9.999000e-01
  9.890306e-01
  9.113431e-01
  5.811444e-01
  1.822707e-01
  1.065595e-01
  2.340331e-01
  6.762176e-01
  9.030042e-01
  9.388683e-01
  8.477459e-01
  5.107915e-01
  1.502351e-01
  6.067430e-02
  9.083239e-02
  3.326616e-01
  8.446041e-01
  9.765411e-01
  9.985103e-01
  9.963172e-01
  9.639618e-01
  7.939078e-01
  2.460616e-01
  6.219815e-02
  3.533388e-02
  5.258523e-02
  1.119565e-01
  6.854995e-02
  7.977384e-02
  7.248785e-02
  5.593986e-02
  4.604026e-02
  6.808842e-02
  1.955220e-01
  5.562274e-01
  8.254965e-01
  9.265444e-01
  9.583075e-01
  9.660120e-01
  9.656238e-01
  9.629699e-01
  9.611812e-01
  9.628752e-01
  9.691619e-01
  9.778778e-01
  9.860490e-01
  9.927541e-01
  9.977431e-01
  9.999000e-01
  9.975625e-01
  9.575318e-01
  7.548642e-01
  2.412773e-01
  6.741747e-02
  2.832888e-02
  1.807613e-02
  1.606483e-02
  2.363976e-02
  5.627472e-02
  1.572217e-01
  4.005824e-01
  7.243723e-01
  8.937297e-01
  9.574081e-01
  9.754404e-01
  9.621504e-01
  8.635801e-01
  5.022985e-01
  1.568002e-01
  8.137461e-02
  1.305367e-01
  3.493373e-01
  6.178491e-01
  6.795761e-01
  5.159431e-01
  2.289636e-01
  7.891745e-02
  4.321613e-02
  7.494889e-02
  2.854588e-01
  8.161334e-01
  9.686826e-01
  9.957523e-01
  9.942583e-01
  9.625600e-01
  7.954166e-01
  2.443354e-01
  5.636210e-02
  2.552094e-02
  2.974852e-02
  4.603523e-02
  3.245356e-02
  3.594337e-02
  3.533247e-02
  3.474412e-02
  4.537578e-02
  1.085371e-01
  3.735798e-01
  8.150571e-01
  9.592838e-01
  9.916771e-01
  9.971846e-01
  9.949843e-01
  9.894828e-01
  9.817625e-01
  9.723465e-01
  9.638081e-01
  9.601524e-01
  9.621524e-01
  9.678202e-01
  9.747726e-01
  9.808974e-01
  9.834871e-01
  9.748819e-01
  9.154975e-01
  6.675299e-01
  2.052948e-01
  6.087638e-02
  2.751080e-02
  1.749604e-02
  1.299764e-02
  1.210654e-02
  1.837221e-02
  4.370449e-02
  1.193621e-01
  2.999246e-01
  5.826836e-01
  7.661646e-01
  8.253952e-01
  7.971584e-01
  6.243726e-01
  2.748306e-01
  9.681265e-02
  5.536798e-02
  6.410350e-02
  1.150403e-01
  1.860965e-01
  2.056521e-01
  1.538578e-01
  8.112669e-02
  4.233229e-02
  3.294535e-02
  6.119846e-02
  2.349714e-01
  7.637354e-01
  9.544484e-01
  9.915702e-01
  9.917374e-01
  9.602355e-01
  7.955654e-01
  2.486566e-01
  5.256486e-02
  1.832909e-02
  1.847185e-02
  2.534445e-02
  2.306196e-02
  2.648079e-02
  2.870668e-02
  3.311586e-02
  5.210142e-02
  1.414273e-01
  4.921670e-01
  8.902061e-01
  9.863728e-01
  9.999000e-01
  9.975213e-01
  9.873653e-01
  9.690193e-01
  9.403330e-01
  8.976626e-01
  8.507554e-01
  8.219248e-01
  8.166554e-01
  8.276567e-01
  8.452568e-01
  8.603369e-01
  8.624084e-01
  8.304396e-01
  6.998002e-01
  3.737890e-01
  1.189397e-01
  4.519259e-02
  2.569992e-02
  1.841086e-02
  1.441589e-02
  1.250446e-02
  1.335388e-02
  1.968933e-02
  3.882754e-02
  8.523831e-02
  1.694255e-01
  2.572415e-01
  3.060183e-01
  2.881914e-01
  2.044110e-01
  1.028365e-01
  5.409236e-02
  4.026082e-02
  4.067957e-02
  5.040180e-02
  6.440212e-02
  7.006301e-02
  6.170911e-02
  4.696390e-02
  3.566279e-02
  3.140800e-02
  5.060714e-02
  1.787148e-01
  6.502586e-01
  9.219365e-01
  9.834463e-01
  9.889405e-01
  9.607791e-01
  8.124144e-01
  2.952823e-01
  6.247751e-02
  1.645955e-02
  1.312925e-02
  1.793106e-02
  2.384208e-02
  2.629138e-02
  2.840285e-02
  3.320189e-02
  5.092059e-02
  1.282724e-01
  4.292384e-01
  8.394758e-01
  9.562153e-01
  9.729832e-01
  9.599185e-01
  9.213752e-01
  8.460090e-01
  7.305273e-01
  5.609612e-01
  3.908570e-01
  3.035609e-01
  2.839882e-01
  3.012681e-01
  3.358382e-01
  3.681178e-01
  3.731695e-01
  3.306285e-01
  2.389481e-01
  1.266926e-01
  5.875849e-02
  3.542730e-02
  2.847555e-02
  2.683223e-02
  2.807965e-02
  3.169687e-02
  3.653575e-02
  4.245416e-02
  5.078971e-02
  6.353894e-02
  8.035927e-02
  9.333027e-02
  9.574103e-02
  8.640367e-02
  6.742411e-02
  4.755117e-02
  3.704248e-02
  3.351686e-02
  3.381768e-02
  3.810301e-02
  4.846080e-02
  6.422367e-02
  7.600215e-02
  7.568130e-02
  6.334666e-02
  4.697852e-02
  4.722930e-02
  1.195000e-01
  4.429587e-01
  8.419222e-01
  9.617557e-01
  9.831443e-01
  9.653260e-01
  8.578483e-01
  4.476483e-01
  1.193755e-01
  3.371793e-02
  1.888924e-02
  2.024582e-02
  4.870930e-02
  3.978088e-02
  3.352495e-02
  3.338447e-02
  4.297939e-02
  8.372590e-02
  2.376820e-01
  5.817985e-01
  7.737525e-01
  8.102687e-01
  7.656567e-01
  6.310805e-01
  4.069432e-01
  2.339631e-01
  1.384344e-01
  8.717957e-02
  6.766564e-02
  6.778392e-02
  7.844418e-02
  9.247969e-02
  1.030126e-01
  1.045056e-01
  9.482825e-02
  7.554994e-02
  5.392608e-02
  4.136184e-02
  4.087310e-02
  5.286887e-02
  7.478037e-02
  1.062880e-01
  1.439854e-01
  1.768441e-01
  2.006642e-01
  2.158204e-01
  2.193341e-01
  2.017099e-01
  1.549979e-01
  9.747423e-02
  5.907508e-02
  4.126976e-02
  3.392907e-02
  3.127130e-02
  3.100540e-02
  3.396799e-02
  4.709328e-02
  8.926084e-02
  1.715417e-01
  2.441734e-01
  2.613495e-01
  2.147785e-01
  1.288407e-01
  6.868075e-02
  8.051845e-02
  2.408507e-01
  6.535778e-01
  8.915768e-01
  9.597508e-01
  9.656549e-01
  9.149580e-01
  7.015019e-01
  3.152764e-01
  1.299543e-01
  7.220134e-02
  5.637331e-02
  1.825827e-01
  1.097292e-01
  5.801592e-02
  3.821008e-02
  3.646853e-02
  4.913820e-02
  9.156410e-02
  1.830554e-01
  2.584959e-01
  2.733524e-01
  2.347342e-01
  1.670421e-01
  9.718211e-02
  5.273551e-02
  3.117480e-02
  2.321978e-02
  2.586519e-02
  3.871437e-02
  5.834153e-02
  7.239222e-02
  7.133932e-02
  5.962058e-02
  4.992782e-02
  4.406497e-02
  4.169096e-02
  4.793470e-02
  7.936798e-02
  1.672082e-01
  2.947309e-01
  4.494204e-01
  6.021548e-01
  7.000436e-01
  7.483456e-01
  7.673827e-01
  7.599272e-01
  7.010594e-01
  5.363549e-01
  2.926666e-01
  1.207899e-01
  5.218977e-02
  3.374032e-02
  2.998839e-02
  3.122940e-02
  4.132033e-02
  8.797093e-02
  2.598386e-01
  5.689252e-01
  7.547786e-01
  7.886207e-01
  6.984342e-01
  4.280147e-01
  1.578511e-01
  7.522722e-02
  1.142912e-01
  3.225770e-01
  6.668817e-01
  8.592541e-01
  9.303411e-01
  9.390600e-01
  8.809899e-01
  7.157635e-01
  4.874868e-01
  3.250536e-01
  2.454364e-01
  6.449116e-01
  3.790746e-01
  1.476574e-01
  5.785709e-02
  3.599951e-02
  3.525682e-02
  4.426363e-02
  6.097314e-02
  7.344407e-02
  7.267047e-02
  6.030088e-02
  4.294024e-02
  2.706675e-02
  1.741925e-02
  1.440034e-02
  1.934071e-02
  4.039467e-02
  9.357834e-02
  1.722694e-01
  2.138416e-01
  1.799788e-01
  1.031513e-01
  5.871120e-02
  4.491852e-02
  4.726259e-02
  7.624039e-02
  1.983701e-01
  5.250550e-01
  7.739413e-01
  8.729780e-01
  9.181851e-01
  9.410144e-01
  9.522350e-01
  9.571612e-01
  9.556754e-01
  9.391892e-01
  8.785414e-01
  6.957138e-01
  3.217009e-01
  9.894488e-02
  4.218830e-02
  3.139026e-02
  3.371646e-02
  5.678204e-02
  1.712241e-01
  5.714305e-01
  8.679142e-01
  9.552289e-01
  9.674937e-01
  9.317279e-01
  7.640814e-01
  3.241741e-01
  1.004350e-01
  6.250895e-02
  1.115041e-01
  2.635093e-01
  5.272529e-01
  7.607011e-01
  8.850373e-01
  9.275548e-01
  9.141475e-01
  8.705145e-01
  8.249915e-01
  7.716194e-01
  9.142517e-01
  7.511106e-01
  3.531900e-01
  1.050619e-01
  4.409655e-02
  3.476256e-02
  3.681253e-02
  3.981522e-02
  3.927953e-02
  3.449322e-02
  2.775021e-02
  2.107274e-02
  1.584217e-02
  1.346826e-02
  1.675302e-02
  3.708950e-02
  1.156227e-01
  3.283939e-01
  6.041602e-01
  7.024378e-01
  5.816540e-01
  2.756205e-01
  1.011850e-01
  5.580350e-02
  5.801242e-02
  1.174741e-01
  3.678332e-01
  8.046366e-01
  9.494974e-01
  9.823096e-01
  9.897681e-01
  9.919132e-01
  9.931189e-01
  9.942529e-01
  9.946749e-01
  9.917601e-01
  9.749827e-01
  8.965910e-01
  6.049250e-01
  1.768591e-01
  5.695476e-02
  3.442262e-02
  3.685559e-02
  7.203596e-02
  2.470584e-01
  7.581004e-01
  9.559653e-01
  9.972751e-01
  9.999000e-01
  9.849232e-01
  8.820637e-01
  4.667991e-01
  1.297035e-01
  4.930084e-02
  4.387672e-02
  7.535239e-02
  1.597671e-01
  3.417411e-01
  6.467478e-01
  8.613383e-01
  9.432463e-01
  9.640868e-01
  9.664605e-01
  9.578646e-01
  9.804120e-01
  8.990992e-01
  5.867081e-01
  1.766773e-01
  7.001560e-02
  5.975287e-02
  6.670408e-02
  6.772374e-02
  5.671664e-02
  3.964469e-02
  2.695682e-02
  1.963527e-02
  1.560176e-02
  1.527306e-02
  2.580408e-02
  8.200341e-02
  3.086085e-01
  7.173126e-01
  9.044578e-01
  9.409184e-01
  8.602712e-01
  5.217456e-01
  1.608509e-01
  6.724036e-02
  6.376772e-02
  1.374678e-01
  4.457917e-01
  8.707734e-01
  9.806421e-01
  9.990021e-01
  9.995796e-01
  9.981956e-01
  9.979747e-01
  9.988868e-01
  9.999000e-01
  9.999000e-01
  9.955153e-01
  9.528608e-01
  7.437759e-01
  2.324312e-01
  6.849346e-02
  3.710179e-02
  3.861850e-02
  7.700466e-02
  2.669973e-01
  7.893609e-01
  9.666104e-01
  9.999000e-01
  9.999000e-01
  9.861901e-01
  8.863058e-01
  4.729882e-01
  1.295314e-01
  4.437410e-02
  2.713253e-02
  2.791128e-02
  4.444774e-02
  1.002417e-01
  2.704744e-01
  6.281363e-01
  8.804126e-01
  9.657792e-01
  9.902430e-01
  9.950779e-01
  9.826170e-01
  9.219576e-01
  6.808008e-01
  2.589973e-01
  1.613190e-01
  1.952725e-01
  2.370775e-01
  2.357467e-01
  1.767428e-01
  9.231445e-02
  4.247442e-02
  2.380642e-02
  1.721406e-02
  1.813506e-02
  4.042904e-02
  1.594637e-01
  5.847105e-01
  8.968738e-01
  9.805544e-01
  9.868792e-01
  9.162643e-01
  5.973896e-01
  1.767357e-01
  6.678904e-02
  5.783746e-02
  1.134821e-01
  3.533383e-01
  7.886845e-01
  9.397266e-01
  9.727336e-01
  9.783711e-01
  9.808525e-01
  9.851845e-01
  9.903406e-01
  9.947546e-01
  9.970633e-01
  9.914626e-01
  9.449843e-01
  7.275367e-01
  2.274318e-01
  6.879647e-02
  3.828870e-02
  3.881183e-02
  6.922980e-02
  2.192481e-01
  6.864978e-01
  9.186304e-01
  9.736029e-01
  9.767924e-01
  9.439428e-01
  7.889646e-01
  3.424318e-01
  9.852375e-02
  3.851486e-02
  2.365803e-02
  1.884405e-02
  1.935669e-02
  3.259746e-02
  9.059565e-02
  2.890346e-01
  6.796079e-01
  9.019751e-01
  9.725739e-01
  9.906562e-01
  9.187430e-01
  8.338913e-01
  6.038937e-01
  3.595241e-01
  4.556582e-01
  6.572719e-01
  7.609809e-01
  7.536735e-01
  5.991495e-01
  2.862481e-01
  9.021259e-02
  3.366987e-02
  1.943082e-02
  2.146486e-02
  6.006227e-02
  2.549389e-01
  7.612277e-01
  9.529466e-01
  9.905672e-01
  9.748371e-01
  8.625872e-01
  4.664033e-01
  1.335691e-01
  5.370224e-02
  4.550185e-02
  7.166056e-02
  1.825302e-01
  4.799805e-01
  7.284458e-01
  8.189466e-01
  8.526240e-01
  8.809688e-01
  9.132159e-01
  9.399317e-01
  9.562556e-01
  9.609309e-01
  9.422104e-01
  8.475283e-01
  5.392926e-01
  1.633025e-01
  5.954092e-02
  4.124869e-02
  4.294784e-02
  5.961180e-02
  1.342800e-01
  3.962496e-01
  7.065202e-01
  8.233616e-01
  8.326696e-01
  7.523416e-01
  4.990820e-01
  1.835943e-01
  6.804984e-02
  3.710343e-02
  2.610188e-02
  1.989305e-02
  1.650777e-02
  1.803613e-02
  3.490448e-02
  1.051799e-01
  3.251247e-01
  6.800421e-01
  8.665599e-01
  9.264915e-01
  6.276460e-01
  4.844820e-01
  3.315588e-01
  3.830995e-01
  7.303827e-01
  9.043671e-01
  9.563064e-01
  9.557971e-01
  8.835190e-01
  6.044268e-01
  1.748394e-01
  4.880058e-02
  2.207293e-02
  2.642915e-02
  9.061124e-02
  3.856666e-01
  8.443100e-01
  9.665258e-01
  9.758691e-01
  9.152946e-01
  6.844196e-01
  2.549429e-01
  7.734397e-02
  3.946961e-02
  3.602194e-02
  4.450762e-02
  7.363133e-02
  1.458530e-01
  2.316989e-01
  2.971174e-01
  3.628137e-01
  4.642603e-01
  5.969456e-01
  7.040642e-01
  7.622267e-01
  7.738767e-01
  7.160283e-01
  5.204368e-01
  2.392565e-01
  9.012330e-02
  5.718886e-02
  6.432029e-02
  7.713946e-02
  8.382654e-02
  9.581828e-02
  1.504778e-01
  2.467643e-01
  3.151195e-01
  3.232007e-01
  2.699342e-01
  1.785108e-01
  1.047219e-01
  7.663281e-02
  6.092334e-02
  4.368827e-02
  2.886025e-02
  2.039743e-02
  1.742708e-02
  2.096522e-02
  4.076786e-02
  1.065349e-01
  2.630871e-01
  4.879527e-01
  6.358392e-01
  1.705083e-01
  1.378652e-01
  1.428906e-01
  3.376291e-01
  8.105123e-01
  9.631590e-01
  9.962446e-01
  9.975195e-01
  9.601780e-01
  7.645488e-01
  2.368584e-01
  5.956934e-02
  2.426222e-02
  3.543212e-02
  1.421106e-01
  5.626897e-01
  8.948748e-01
  9.628104e-01
  9.295698e-01
  7.523832e-01
  3.584571e-01
  1.104228e-01
  4.415241e-02
  3.399274e-02
  3.514858e-02
  3.716952e-02
  4.118435e-02
  5.134365e-02
  6.380081e-02
  7.363995e-02
  8.534858e-02
  1.080448e-01
  1.450494e-01
  1.866887e-01
  2.201621e-01
  2.326763e-01
  2.100110e-01
  1.491789e-01
  8.551371e-02
  6.517738e-02
  1.003745e-01
  1.856223e-01
  2.525713e-01
  2.533065e-01
  1.905065e-01
  1.176060e-01
  9.264868e-02
  9.308872e-02
  9.515084e-02
  9.886512e-02
  1.248021e-01
  1.815111e-01
  2.187663e-01
  1.980016e-01
  1.292518e-01
  6.416900e-02
  3.223998e-02
  2.156536e-02
  1.971648e-02
  2.426035e-02
  4.006615e-02
  7.625179e-02
  1.313163e-01
  1.729933e-01
  4.977551e-02
  4.891405e-02
  8.377652e-02
  2.851888e-01
  8.021742e-01
  9.683187e-01
  9.999000e-01
  9.999000e-01
  9.658987e-01
  7.764914e-01
  2.401896e-01
  5.917786e-02
  2.647669e-02
  5.369341e-02
  2.255534e-01
  7.152660e-01
  9.245339e-01
  9.406591e-01
  8.175981e-01
  4.443102e-01
  1.427597e-01
  5.150143e-02
  4.014369e-02
  5.008726e-02
  5.726475e-02
  5.281691e-02
  4.244436e-02
  3.522620e-02
  3.171805e-02
  2.957288e-02
  2.889856e-02
  3.139753e-02
  3.795351e-02
  4.689709e-02
  5.525464e-02
  5.981466e-02
  5.788222e-02
  5.077136e-02
  5.117106e-02
  9.492859e-02
  2.775286e-01
  5.994842e-01
  7.626594e-01
  7.564160e-01
  5.767457e-01
  2.566527e-01
  9.213817e-02
  5.213838e-02
  5.413934e-02
  1.011746e-01
  2.758711e-01
  5.619833e-01
  7.089464e-01
  6.737486e-01
  4.560936e-01
  1.942156e-01
  6.610342e-02
  3.044653e-02
  2.248823e-02
  2.234009e-02
  2.613076e-02
  3.380349e-02
  4.394180e-02
  5.069314e-02
  2.896784e-02
  3.135887e-02
  6.137236e-02
  2.183224e-01
  7.063318e-01
  9.349262e-01
  9.867441e-01
  9.842297e-01
  9.216670e-01
  6.591874e-01
  1.867437e-01
  4.943945e-02
  3.385263e-02
  9.960873e-02
  3.858924e-01
  8.205115e-01
  9.362970e-01
  8.909219e-01
  6.123360e-01
  2.038140e-01
  6.354145e-02
  4.776101e-02
  8.593934e-02
  1.482682e-01
  1.779443e-01
  1.448187e-01
  8.388099e-02
  4.557827e-02
  3.083006e-02
  2.539473e-02
  2.364186e-02
  2.458572e-02
  2.755007e-02
  3.038279e-02
  3.147833e-02
  3.098977e-02
  3.050729e-02
  3.338483e-02
  5.468476e-02
  1.651630e-01
  5.687433e-01
  8.763187e-01
  9.591345e-01
  9.556246e-01
  8.585276e-01
  5.203475e-01
  1.500234e-01
  5.692500e-02
  6.182014e-02
  1.764321e-01
  5.823308e-01
  8.667219e-01
  9.434378e-01
  9.325486e-01
  8.205241e-01
  4.851643e-01
  1.407660e-01
  4.644738e-02
  2.760999e-02
  2.585572e-02
  2.846239e-02
  3.147013e-02
  3.274328e-02
  3.142687e-02
  3.494828e-02
  2.992049e-02
  4.495664e-02
  1.307221e-01
  4.434615e-01
  7.788918e-01
  8.904156e-01
  8.802456e-01
  7.388786e-01
  3.728057e-01
  1.054669e-01
  4.088001e-02
  6.229580e-02
  2.175462e-01
  6.389956e-01
  8.982987e-01
  9.349991e-01
  8.091568e-01
  3.652198e-01
  9.953476e-02
  5.061633e-02
  1.010088e-01
  2.846650e-01
  5.311517e-01
  6.243473e-01
  5.000659e-01
  2.467944e-01
  8.800402e-02
  4.097426e-02
  3.010064e-02
  3.089796e-02
  4.002294e-02
  5.423356e-02
  6.167400e-02
  5.614047e-02
  4.264462e-02
  3.258627e-02
  3.322909e-02
  6.223434e-02
  2.152423e-01
  7.205337e-01
  9.509929e-01
  9.999000e-01
  9.985811e-01
  9.423980e-01
  6.900560e-01
  2.020585e-01
  6.759513e-02
  7.644967e-02