# vtk DataFile Version 2.0
time_10.vtk
ASCII
DATASET STRUCTURED_GRID
DIMENSIONS    64    64     1
POINTS    4096 float
  0.000000e+00   0.000000e+00   0.000000e+00
  0.000000e+00   1.000000e+00   0.000000e+00
  0.000000e+00   2.000000e+00   0.000000e+00
  0.000000e+00   3.000000e+00   0.000000e+00
  0.000000e+00   4.000000e+00   0.000000e+00
  0.000000e+00   5.000000e+00   0.000000e+00
  0.000000e+00   6.000000e+00   0.000000e+00
  0.000000e+00   7.000000e+00   0.000000e+00
  0.000000e+00   8.000000e+00   0.000000e+00
  0.000000e+00   9.000000e+00   0.000000e+00
  0.000000e+00   1.000000e+01   0.000000e+00
  0.000000e+00   1.100000e+01   0.000000e+00
  0.000000e+00   1.200000e+01   0.000000e+00
  0.000000e+00   1.300000e+01   0.000000e+00
  0.000000e+00   1.400000e+01   0.000000e+00
  0.000000e+00   1.500000e+01   0.000000e+00
  0.000000e+00   1.600000e+01   0.000000e+00
  0.000000e+00   1.700000e+01   0.000000e+00
  0.000000e+00   1.800000e+01   0.000000e+00
  0.000000e+00   1.900000e+01   0.000000e+00
  0.000000e+00   2.000000e+01   0.000000e+00
  0.000000e+00   2.100000e+01   0.000000e+00
  0.000000e+00   2.200000e+01   0.000000e+00
  0.000000e+00   2.300000e+01   0.000000e+00
  0.000000e+00   2.400000e+01   0.000000e+00
  0.000000e+00   2.500000e+01   0.000000e+00
  0.000000e+00   2.600000e+01   0.000000e+00
  0.000000e+00   2.700000e+01   0.000000e+00
  0.000000e+00   2.800000e+01   0.000000e+00
  0.000000e+00   2.900000e+01   0.000000e+00
  0.000000e+00   3.000000e+01   0.000000e+00
  0.000000e+00   3.100000e+01   0.000000e+00
  0.000000e+00   3.200000e+01   0.000000e+00
  0.000000e+00   3.300000e+01   0.000000e+00
  0.000000e+00   3.400000e+01   0.000000e+00
  0.000000e+00   3.500000e+01   0.000000e+00
  0.000000e+00   3.600000e+01   0.000000e+00
  0.000000e+00   3.700000e+01   0.000000e+00
  0.000000e+00   3.800000e+01   0.000000e+00
  0.000000e+00   3.900000e+01   0.000000e+00
  0.000000e+00   4.000000e+01   0.000000e+00
  0.000000e+00   4.100000e+01   0.000000e+00
  0.000000e+00   4.200000e+01   0.000000e+00
  0.000000e+00   4.300000e+01   0.000000e+00
  0.000000e+00   4.400000e+01   0.000000e+00
  0.000000e+00   4.500000e+01   0.000000e+00
  0.000000e+00   4.600000e+01   0.000000e+00
  0.000000e+00   4.700000e+01   0.000000e+00
  0.000000e+00   4.800000e+01   0.000000e+00
  0.000000e+00   4.900000e+01   0.000000e+00
  0.000000e+00   5.000000e+01   0.000000e+00
  0.000000e+00   5.100000e+01   0.000000e+00
  0.000000e+00   5.200000e+01   0.000000e+00
  0.000000e+00   5.300000e+01   0.000000e+00
  0.000000e+00   5.400000e+01   0.000000e+00
  0.000000e+00   5.500000e+01   0.000000e+00
  0.000000e+00   5.600000e+01   0.000000e+00
  0.000000e+00   5.700000e+01   0.000000e+00
  0.000000e+00   5.800000e+01   0.000000e+00
  0.000000e+00   5.900000e+01   0.000000e+00
  0.000000e+00   6.000000e+01   0.000000e+00
  0.000000e+00   6.100000e+01   0.000000e+00
  0.000000e+00   6.200000e+01   0.000000e+00
  0.000000e+00   6.300000e+01   0.000000e+00
  1.000000e+00   0.000000e+00   0.000000e+00
  1.000000e+00   1.000000e+00   0.000000e+00
  1.000000e+00   2.000000e+00   0.000000e+00
  1.000000e+00   3.000000e+00   0.000000e+00
  1.000000e+00   4.000000e+00   0.000000e+00
  1.000000e+00   5.000000e+00   0.000000e+00
  1.000000e+00   6.000000e+00   0.000000e+00
  1.000000e+00   7.000000e+00   0.000000e+00
  1.000000e+00   8.000000e+00   0.000000e+00
  1.000000e+00   9.000000e+00   0.000000e+00
  1.000000e+00   1.000000e+01   0.000000e+00
  1.000000e+00   1.100000e+01   0.000000e+00
  1.000000e+00   1.200000e+01   0.000000e+00
  1.000000e+00   1.300000e+01   0.000000e+00
  1.000000e+00   1.400000e+01   0.000000e+00
  1.000000e+00   1.500000e+01   0.000000e+00
  1.000000e+00   1.600000e+01   0.000000e+00
  1.000000e+00   1.700000e+01   0.000000e+00
  1.000000e+00   1.800000e+01   0.000000e+00
  1.000000e+00   1.900000e+01   0.000000e+00
  1.000000e+00   2.000000e+01   0.000000e+00
  1.000000e+00   2.100000e+01   0.000000e+00
  1.000000e+00   2.200000e+01   0.000000e+00
  1.000000e+00   2.300000e+01   0.000000e+00
  1.000000e+00   2.400000e+01   0.000000e+00
  1.000000e+00   2.500000e+01   0.000000e+00
  1.000000e+00   2.600000e+01   0.000000e+00
  1.000000e+00   2.700000e+01   0.000000e+00
  1.000000e+00   2.800000e+01   0.000000e+00
  1.000000e+00   2.900000e+01   0.000000e+00
  1.000000e+00   3.000000e+01   0.000000e+00
  1.000000e+00   3.100000e+01   0.000000e+00
  1.000000e+00   3.200000e+01   0.000000e+00
  1.000000e+00   3.300000e+01   0.000000e+00
  1.000000e+00   3.400000e+01   0.000000e+00
  1.000000e+00   3.500000e+01   0.000000e+00
  1.000000e+00   3.600000e+01   0.000000e+00
  1.000000e+00   3.700000e+01   0.000000e+00
  1.000000e+00   3.800000e+01   0.000000e+00
  1.000000e+00   3.900000e+01   0.000000e+00
  1.000000e+00   4.000000e+01   0.000000e+00
  1.000000e+00   4.100000e+01   0.000000e+00
  1.000000e+00   4.200000e+01   0.000000e+00
  1.000000e+00   4.300000e+01   0.000000e+00
  1.000000e+00   4.400000e+01   0.000000e+00
  1.000000e+00   4.500000e+01   0.000000e+00
  1.000000e+00   4.600000e+01   0.000000e+00
  1.000000e+00   4.700000e+01   0.000000e+00
  1.000000e+00   4.800000e+01   0.000000e+00
  1.000000e+00   4.900000e+01   0.000000e+00
  1.000000e+00   5.000000e+01   0.000000e+00
  1.000000e+00   5.100000e+01   0.000000e+00
  1.000000e+00   5.200000e+01   0.000000e+00
  1.000000e+00   5.300000e+01   0.000000e+00
  1.000000e+00   5.400000e+01   0.000000e+00
  1.000000e+00   5.500000e+01   0.000000e+00
  1.000000e+00   5.600000e+01   0.000000e+00
  1.000000e+00   5.700000e+01   0.000000e+00
  1.000000e+00   5.800000e+01   0.000000e+00
  1.000000e+00   5.900000e+01   0.000000e+00
  1.000000e+00   6.000000e+01   0.000000e+00
  1.000000e+00   6.100000e+01   0.000000e+00
  1.000000e+00   6.200000e+01   0.000000e+00
  1.000000e+00   6.300000e+01   0.000000e+00
  2.000000e+00   0.000000e+00   0.000000e+00
  2.000000e+00   1.000000e+00   0.000000e+00
  2.000000e+00   2.000000e+00   0.000000e+00
  2.000000e+00   3.000000e+00   0.000000e+00
  2.000000e+00   4.000000e+00   0.000000e+00
  2.000000e+00   5.000000e+00   0.000000e+00
  2.000000e+00   6.000000e+00   0.000000e+00
  2.000000e+00   7.000000e+00   0.000000e+00
  2.000000e+00   8.000000e+00   0.000000e+00
  2.000000e+00   9.000000e+00   0.000000e+00
  2.000000e+00   1.000000e+01   0.000000e+00
  2.000000e+00   1.100000e+01   0.000000e+00
  2.000000e+00   1.200000e+01   0.000000e+00
  2.000000e+00   1.300000e+01   0.000000e+00
  2.000000e+00   1.400000e+01   0.000000e+00
  2.000000e+00   1.500000e+01   0.000000e+00
  2.000000e+00   1.600000e+01   0.000000e+00
  2.000000e+00   1.700000e+01   0.000000e+00
  2.000000e+00   1.800000e+01   0.000000e+00
  2.000000e+00   1.900000e+01   0.000000e+00
  2.000000e+00   2.000000e+01   0.000000e+00
  2.000000e+00   2.100000e+01   0.000000e+00
  2.000000e+00   2.200000e+01   0.000000e+00
  2.000000e+00   2.300000e+01   0.000000e+00
  2.000000e+00   2.400000e+01   0.000000e+00
  2.000000e+00   2.500000e+01   0.000000e+00
  2.000000e+00   2.600000e+01   0.000000e+00
  2.000000e+00   2.700000e+01   0.000000e+00
  2.000000e+00   2.800000e+01   0.000000e+00
  2.000000e+00   2.900000e+01   0.000000e+00
  2.000000e+00   3.000000e+01   0.000000e+00
  2.000000e+00   3.100000e+01   0.000000e+00
  2.000000e+00   3.200000e+01   0.000000e+00
  2.000000e+00   3.300000e+01   0.000000e+00
  2.000000e+00   3.400000e+01   0.000000e+00
  2.000000e+00   3.500000e+01   0.000000e+00
  2.000000e+00   3.600000e+01   0.000000e+00
  2.000000e+00   3.700000e+01   0.000000e+00
  2.000000e+00   3.800000e+01   0.000000e+00
  2.000000e+00   3.900000e+01   0.000000e+00
  2.000000e+00   4.000000e+01   0.000000e+00
  2.000000e+00   4.100000e+01   0.000000e+00
  2.000000e+00   4.200000e+01   0.000000e+00
  2.000000e+00   4.300000e+01   0.000000e+00
  2.000000e+00   4.400000e+01   0.000000e+00
  2.000000e+00   4.500000e+01   0.000000e+00
  2.000000e+00   4.600000e+01   0.000000e+00
  2.000000e+00   4.700000e+01   0.000000e+00
  2.000000e+00   4.800000e+01   0.000000e+00
  2.000000e+00   4.900000e+01   0.000000e+00
  2.000000e+00   5.000000e+01   0.000000e+00
  2.000000e+00   5.100000e+01   0.000000e+00
  2.000000e+00   5.200000e+01   0.000000e+00
  2.000000e+00   5.300000e+01   0.000000e+00
  2.000000e+00   5.400000e+01   0.000000e+00
  2.000000e+00   5.500000e+01   0.000000e+00
  2.000000e+00   5.600000e+01   0.000000e+00
  2.000000e+00   5.700000e+01   0.000000e+00
  2.000000e+00   5.800000e+01   0.000000e+00
  2.000000e+00   5.900000e+01   0.000000e+00
  2.000000e+00   6.000000e+01   0.000000e+00
  2.000000e+00   6.100000e+01   0.000000e+00
  2.000000e+00   6.200000e+01   0.000000e+00
  2.000000e+00   6.300000e+01   0.000000e+00
  3.000000e+00   0.000000e+00   0.000000e+00
  3.000000e+00   1.000000e+00   0.000000e+00
  3.000000e+00   2.000000e+00   0.000000e+00
  3.000000e+00   3.000000e+00   0.000000e+00
  3.000000e+00   4.000000e+00   0.000000e+00
  3.000000e+00   5.000000e+00   0.000000e+00
  3.000000e+00   6.000000e+00   0.000000e+00
  3.000000e+00   7.000000e+00   0.000000e+00
  3.000000e+00   8.000000e+00   0.000000e+00
  3.000000e+00   9.000000e+00   0.000000e+00
  3.000000e+00   1.000000e+01   0.000000e+00
  3.000000e+00   1.100000e+01   0.000000e+00
  3.000000e+00   1.200000e+01   0.000000e+00
  3.000000e+00   1.300000e+01   0.000000e+00
  3.000000e+00   1.400000e+01   0.000000e+00
  3.000000e+00   1.500000e+01   0.000000e+00
  3.000000e+00   1.600000e+01   0.000000e+00
  3.000000e+00   1.700000e+01   0.000000e+00
  3.000000e+00   1.800000e+01   0.000000e+00
  3.000000e+00   1.900000e+01   0.000000e+00
  3.000000e+00   2.000000e+01   0.000000e+00
  3.000000e+00   2.100000e+01   0.000000e+00
  3.000000e+00   2.200000e+01   0.000000e+00
  3.000000e+00   2.300000e+01   0.000000e+00
  3.000000e+00   2.400000e+01   0.000000e+00
  3.000000e+00   2.500000e+01   0.000000e+00
  3.000000e+00   2.600000e+01   0.000000e+00
[...]
POINT_DATA  4096
SCALARS CON float 1
LOOKUP_TABLE default
  2.345045e-01
  7.658801e-01
  9.610748e-01
  9.984037e-01
  9.999000e-01
  9.985286e-01
  9.640019e-01
  7.799990e-01
  2.419430e-01
  6.103094e-02
  2.541580e-02
  1.987330e-02
  2.010556e-02
  2.153137e-02
  2.333905e-02
  2.537292e-02
  2.749919e-02
  2.943748e-02
  3.071650e-02
  3.076633e-02
  2.916452e-02
  2.597787e-02
  2.212988e-02
  1.949219e-02
  2.121233e-02
  3.987442e-02
  1.249986e-01
  3.963662e-01
  7.673974e-01
  9.304582e-01
  9.782332e-01
  9.897401e-01
  9.896594e-01
  9.814556e-01
  9.582397e-01
  9.049949e-01
  7.964515e-01
  5.952761e-01
  3.142784e-01
  1.295423e-01
  5.461800e-02
  3.696539e-02
  3.741769e-02
  4.208023e-02
  4.603148e-02
  4.708349e-02
  4.479651e-02
  4.034162e-02
  3.567923e-02
  3.341994e-02
  3.850560e-02
  6.623043e-02
  1.538341e-01
  2.986914e-01
  4.266019e-01
  4.523837e-01
  3.578697e-01
  2.129337e-01
  9.317100e-02
  3.867125e-02
  2.195885e-02
  1.893038e-02
  2.488575e-02
  6.013340e-02
  1.808279e-01
  6.407634e-01
  9.149378e-01
  9.836404e-01
  9.951497e-01
  9.872173e-01
  9.311686e-01
  6.919055e-01
  2.048840e-01
  6.096461e-02
  3.821420e-02
  4.217251e-02
  5.030857e-02
  5.783655e-02
  6.466287e-02
  7.148209e-02
  7.846516e-02
  8.464036e-02
  8.771843e-02
  8.485191e-02
  7.425816e-02
  5.684207e-02
  3.784035e-02
  2.554563e-02
  2.058041e-02
  2.345186e-02
  4.850697e-02
  1.493212e-01
  4.319427e-01
  7.775189e-01
  9.304245e-01
  9.777165e-01
  9.904631e-01
  9.924960e-01
  9.894001e-01
  9.798410e-01
  9.563460e-01
  8.955491e-01
  7.289960e-01
  3.767737e-01
  1.209450e-01
  5.160037e-02
  3.886359e-02
  3.850452e-02
  3.987617e-02
  4.040362e-02
  3.957336e-02
  3.774187e-02
  3.605996e-02
  3.799271e-02
  5.734294e-02
  1.502875e-01
  4.542874e-01
  7.586865e-01
  8.699678e-01
  8.844572e-01
  8.252522e-01
  6.316660e-01
  2.821643e-01
  8.541401e-02
  3.033910e-02
  1.904480e-02
  2.220117e-02
  4.894084e-02
  1.005337e-01
  3.595732e-01
  7.412738e-01
  9.028955e-01
  9.434718e-01
  9.224506e-01
  8.026748e-01
  4.647286e-01
  1.519756e-01
  8.884477e-02
  1.146917e-01
  1.680290e-01
  2.153267e-01
  2.499854e-01
  2.771778e-01
  3.022017e-01
  3.267749e-01
  3.473585e-01
  3.548151e-01
  3.374200e-01
  2.863534e-01
  2.011147e-01
  1.035519e-01
  4.632463e-02
  2.613077e-02
  2.040308e-02
  2.437464e-02
  5.235844e-02
  1.561462e-01
  4.318243e-01
  7.701993e-01
  9.261848e-01
  9.768635e-01
  9.919502e-01
  9.962927e-01
  9.967446e-01
  9.934416e-01
  9.795892e-01
  9.184386e-01
  6.854537e-01
  2.293600e-01
  7.650578e-02
  4.581546e-02
  4.169537e-02
  4.212367e-02
  4.243610e-02
  4.169901e-02
  4.010438e-02
  3.909410e-02
  4.480201e-02
  8.562634e-02
  2.779827e-01
  7.465164e-01
  9.373739e-01
  9.821374e-01
  9.862331e-01
  9.668506e-01
  8.836412e-01
  6.041469e-01
  1.909241e-01
  5.029394e-02
  2.048978e-02
  1.841160e-02
  3.281002e-02
  4.495149e-02
  1.304680e-01
  3.339169e-01
  5.847213e-01
  6.962228e-01
  6.485651e-01
  4.430226e-01
  2.188570e-01
  1.497661e-01
  2.447729e-01
  4.383136e-01
  6.407536e-01
  7.507467e-01
  7.976942e-01
  8.200733e-01
  8.345176e-01
  8.462029e-01
  8.552555e-01
  8.587258e-01
  8.493261e-01
  8.046310e-01
  6.548974e-01
  3.336700e-01
  1.065670e-01
  4.013826e-02
  2.317190e-02
  1.905995e-02
  2.380437e-02
  5.162736e-02
  1.502534e-01
  4.099346e-01
  7.502321e-01
  9.169175e-01
  9.739588e-01
  9.923824e-01
  9.986106e-01
  9.999000e-01
  9.982604e-01
  9.687465e-01
  8.112309e-01
  3.095559e-01
  9.665705e-02
  5.193488e-02
  4.507543e-02
  4.493867e-02
  4.505698e-02
  4.412766e-02
  4.230564e-02
  4.145706e-02
  5.032326e-02
  1.108545e-01
  3.856418e-01
  8.542084e-01
  9.786977e-01
  9.999000e-01
  9.999000e-01
  9.946117e-01
  9.609699e-01
  8.108191e-01
  3.618357e-01
  8.817689e-02
  2.493292e-02
  1.520035e-02
  2.035789e-02
  2.124392e-02
  4.319983e-02
  9.113815e-02
  1.572342e-01
  1.965085e-01
  1.849361e-01
  1.396625e-01
  1.307517e-01
  2.752254e-01
  6.286427e-01
  8.402962e-01
  9.229881e-01
  9.535861e-01
  9.652378e-01
  9.706218e-01
  9.741284e-01
  9.770802e-01
  9.796018e-01
  9.811053e-01
  9.799617e-01
  9.682876e-01
  9.057291e-01
  6.621871e-01
  2.089511e-01
  6.179234e-02
  2.837965e-02
  1.964959e-02
  1.744806e-02
  2.239767e-02
  4.809551e-02
  1.365166e-01
  3.703309e-01
  7.103676e-01
  8.941829e-01
  9.629036e-01
  9.875854e-01
  9.961734e-01
  9.952004e-01
  9.643890e-01
  8.039333e-01
  3.074659e-01
  9.781604e-02
  5.355853e-02
  4.671575e-02
  4.652329e-02
  4.652795e-02
  4.539288e-02
  4.325617e-02
  4.212533e-02
  5.168643e-02
  1.188575e-01
  4.218154e-01
  8.759745e-01
  9.840943e-01
  9.999000e-01
  9.999000e-01
  9.988375e-01
  9.836163e-01
  9.052612e-01
  5.873952e-01
  1.531359e-01
  3.495693e-02
  1.360278e-02
  1.327997e-02
  1.212372e-02
  1.860703e-02
  2.961525e-02
  4.341197e-02
  5.301031e-02
  5.593457e-02
  6.564700e-02
  1.429525e-01
  4.714143e-01
  8.517280e-01
  9.631901e-01
  9.886865e-01
  9.944855e-01
  9.963311e-01
  9.973135e-01
  9.981114e-01
  9.988858e-01
  9.996096e-01
  9.999000e-01
  9.999000e-01
  9.991112e-01
  9.685059e-01
  8.011390e-01
  2.829613e-01
  7.854406e-02
  3.282068e-02
  2.155043e-02
  1.737108e-02
  1.620548e-02
  2.085123e-02
  4.292708e-02
  1.156315e-01
  3.052231e-01
  6.203547e-01
  8.295479e-01
  9.221569e-01
  9.541797e-01
  9.500636e-01
  8.854105e-01
  6.470365e-01
  2.216654e-01
  7.951130e-02
  5.035683e-02
  4.630538e-02
  4.659034e-02
  4.665931e-02
  4.546873e-02
  4.307638e-02
  4.121013e-02
  4.836793e-02
  1.054758e-01
  3.738011e-01
  8.521058e-01
  9.772258e-01
  9.983661e-01
  9.999000e-01
  9.993756e-01
  9.912596e-01
  9.486023e-01
  7.524910e-01
  2.515928e-01
  5.523606e-02
  1.473249e-02
  9.471874e-03
  7.938241e-03
  1.082306e-02
  1.489299e-02
  1.945822e-02
  2.384993e-02
  3.002605e-02
  5.222633e-02
  1.604677e-01
  5.752552e-01
  9.118470e-01
  9.887900e-01
  9.999000e-01
  9.999000e-01
  9.999000e-01
  9.999000e-01
  9.998072e-01
  9.996342e-01
  9.996114e-01
  9.997748e-01
  9.999000e-01
  9.981493e-01
  9.670221e-01
  7.990694e-01
  2.829481e-01
  7.955874e-02
  3.420646e-02
  2.315592e-02
  1.887678e-02
  1.649330e-02
  1.602779e-02
  2.017082e-02
  3.722036e-02
  8.795937e-02
  2.085022e-01
  4.179380e-01
  6.444049e-01
  7.467831e-01
  7.345227e-01
  5.860086e-01
  3.037062e-01
  1.122583e-01
  5.635208e-02
  4.519407e-02
  4.455096e-02
  4.560710e-02
  4.619271e-02
  4.552450e-02
  4.321108e-02
  4.030753e-02
  4.313033e-02
  8.107125e-02
  2.771697e-01
  7.729726e-01
  9.542673e-01
  9.926231e-01
  9.990348e-01
  9.991653e-01
  9.943104e-01
  9.699692e-01
  8.521945e-01
  4.260225e-01
  1.024034e-01
  2.249801e-02
  8.253235e-03
  6.317614e-03
  7.320365e-03
  9.928238e-03
  1.304507e-02
  1.672170e-02
  2.306226e-02
  4.371284e-02
  1.366238e-01
  4.999349e-01
  8.797013e-01
  9.787808e-01
  9.967683e-01
  9.979061e-01
  9.964138e-01
  9.944742e-01
  9.922392e-01
  9.895568e-01
  9.863556e-01
  9.827207e-01
  9.779079e-01
  9.636970e-01
  8.988478e-01
  6.538867e-01
  2.089076e-01
  6.477401e-02
  3.248133e-02
  2.426455e-02
  2.111291e-02
  1.976268e-02
  1.992065e-02
  2.160291e-02
  2.615867e-02
  3.825789e-02
  6.678502e-02
  1.204369e-01
  1.896202e-01
  2.320304e-01
  2.249060e-01
  1.702200e-01
  9.799008e-02
  5.540180e-02
  4.254086e-02
  4.100602e-02
  4.255676e-02
  4.499306e-02
  4.810208e-02
  5.067019e-02
  4.985823e-02
  4.507120e-02
  4.143620e-02
  5.844276e-02
  1.733125e-01
  5.832278e-01
  8.887915e-01
  9.749625e-01
  9.944373e-01
  9.979018e-01
  9.956857e-01
  9.826583e-01
  9.209807e-01
  6.634087e-01
  2.100584e-01
  4.789845e-02
  1.202656e-02
  9.627366e-03
  6.226944e-03
  7.419092e-03
  9.997815e-03
  1.339172e-02
  1.867816e-02
  3.228050e-02
  8.525239e-02
  2.953297e-01
  7.131091e-01
  9.031229e-01
  9.560772e-01
  9.668048e-01
  9.656255e-01
  9.602962e-01
  9.519093e-01
  9.389556e-01
  9.187879e-01
  8.905043e-01
  8.551530e-01
  7.949499e-01
  6.367997e-01
  3.235536e-01
  1.079693e-01
  4.520163e-02
  2.979379e-02
  2.573483e-02
  2.576896e-02
  3.065965e-02
  4.143695e-02
  5.392191e-02
  6.402161e-02
  7.236613e-02
  8.134548e-02
  9.166985e-02
  9.861896e-02
  9.321352e-02
  7.686258e-02
  5.889771e-02
  4.449389e-02
  3.758171e-02
  3.662281e-02
  3.830628e-02
  4.170827e-02
  4.896242e-02
  6.457925e-02
  8.457078e-02
  9.238280e-02
  8.048052e-02
  5.850373e-02
  4.882876e-02
  9.167315e-02
  3.043155e-01
  7.167399e-01
  9.206351e-01
  9.792624e-01
  9.937296e-01
  9.955947e-01
  9.897140e-01
  9.607442e-01
  8.326847e-01
  4.350746e-01
  1.236749e-01
  3.100636e-02
  3.060688e-02
  1.169717e-02
  7.828215e-03
  8.632991e-03
  1.122974e-02
  1.520857e-02
  2.271742e-02
  4.450161e-02
  1.207083e-01
  3.313830e-01
  6.094521e-01
  7.539265e-01
  7.961361e-01
  7.980981e-01
  7.829798e-01
  7.542927e-01
  7.045956e-01
  6.203053e-01
  5.015210e-01
  3.834659e-01
  2.872395e-01
  1.947424e-01
  1.029764e-01
  5.092208e-02
  3.345930e-02
  2.876461e-02
  2.968900e-02
  4.009760e-02
  7.504597e-02
  1.439404e-01
  2.168675e-01
  2.665013e-01
  2.940513e-01
  3.042260e-01
  2.942176e-01
  2.537405e-01
  1.778679e-01
  9.535989e-02
  5.087923e-02
  3.633581e-02
  3.332816e-02
  3.419262e-02
  3.705644e-02
  4.481266e-02
  7.064221e-02
  1.448032e-01
  2.487590e-01
  2.964214e-01
  2.551524e-01
  1.557670e-01
  7.375859e-02
  5.684863e-02
  1.276924e-01
  3.881887e-01
  7.592796e-01
  9.279258e-01
  9.789083e-01
  9.920344e-01
  9.925436e-01
  9.811623e-01
  9.295258e-01
  7.327385e-01
  3.290375e-01
  1.015183e-01
  1.200325e-01
  4.520108e-02
  2.043595e-02
  1.315640e-02
  1.224011e-02
  1.398688e-02
  1.769831e-02
  2.542080e-02
  4.545512e-02
  9.397727e-02
  1.670751e-01
  2.226657e-01
  2.453937e-01
  2.438499e-01
  2.293754e-01
  2.084394e-01
  1.826439e-01
  1.520538e-01
  1.200371e-01
  9.371020e-02
  7.451487e-02
  5.765498e-02
  4.205459e-02
  3.283778e-02
  2.958593e-02
  3.038486e-02
  4.012447e-02
  8.489212e-02
  2.421856e-01
  5.237167e-01
  7.291044e-01
  8.069370e-01
  8.314438e-01
  8.358906e-01
  8.218379e-01
  7.611056e-01
  5.778755e-01
  2.745924e-01
  9.454666e-02
  4.418109e-02
  3.380573e-02
  3.331909e-02
  3.757420e-02
  5.626014e-02
  1.380472e-01
  4.154527e-01
  7.153374e-01
  8.053531e-01
  7.463175e-01
  4.980226e-01
  1.854164e-01
  6.562518e-02
  5.842951e-02
  1.470525e-01
  4.162162e-01
  7.637847e-01
  9.243684e-01
  9.756925e-01
  9.894577e-01
  9.890124e-01
  9.722030e-01
  9.037797e-01
  6.887309e-01
  3.258043e-01
  4.187538e-01
  1.949077e-01
  9.010436e-02
  4.675116e-02
  2.879000e-02
  2.123698e-02
  1.905990e-02
  2.006080e-02
  2.428956e-02
  3.314397e-02
  4.531909e-02
  5.429153e-02
  5.708926e-02
  5.523383e-02
  5.138063e-02
  4.738633e-02
  4.393944e-02
  4.087681e-02
  3.796775e-02
  3.545650e-02
  3.344614e-02
  3.158314e-02
  2.985911e-02
  2.898601e-02
  2.955040e-02
  3.450486e-02
  6.044670e-02
  1.821748e-01
  5.770148e-01
  8.572239e-01
  9.465042e-01
  9.697762e-01
  9.754983e-01
  9.763326e-01
  9.727761e-01
  9.538762e-01
  8.741833e-01
  6.044408e-01
  1.910124e-01
  6.304067e-02
  3.669875e-02
  3.325799e-02
  3.921209e-02
  7.316261e-02
  2.344271e-01
  7.090679e-01
  9.253678e-01
  9.700251e-01
  9.479679e-01
  8.103496e-01
  3.998398e-01
  1.095137e-01
  4.332096e-02
  5.495488e-02
  1.476043e-01
  4.022192e-01
  7.413773e-01
  9.100994e-01
  9.682190e-01
  9.852886e-01
  9.855312e-01
  9.674487e-01
  9.022253e-01
  7.257071e-01
  8.195988e-01
  6.286775e-01
  3.767044e-01
  2.125908e-01
  1.211824e-01
  6.766908e-02
  3.953695e-02
  2.608618e-02
  2.148831e-02
  2.092826e-02
  2.150680e-02
  2.155431e-02
  2.076613e-02
  1.990725e-02
  2.024290e-02
  2.317919e-02
  2.937598e-02
  3.692967e-02
  4.151254e-02
  4.017874e-02
  3.540888e-02
  3.142427e-02
  2.964239e-02
  2.938042e-02
  3.089956e-02
  3.939448e-02
  8.334659e-02
  2.863390e-01
  7.851363e-01
  9.578875e-01
  9.934629e-01
  9.986623e-01
  9.992210e-01
  9.993260e-01
  9.990819e-01
  9.946332e-01
  9.607140e-01
  7.904946e-01
  2.859043e-01
  8.297369e-02
  3.992955e-02
  3.331376e-02
  3.999651e-02
  8.324394e-02
  2.902352e-01
  8.111023e-01
  9.725829e-01
  9.999000e-01
  9.933564e-01
  9.184501e-01
  5.965060e-01
  1.600730e-01
  4.651587e-02
  2.937189e-02
  4.969008e-02
  1.331074e-01
  3.534527e-01
  6.860102e-01
  8.770662e-01
  9.521143e-01
  9.778331e-01
  9.822197e-01
  9.693452e-01
  9.250745e-01
  9.547060e-01
  9.090480e-01
  8.260773e-01
  6.966291e-01
  4.880642e-01
  2.778012e-01
  1.389039e-01
  6.099372e-02
  3.051195e-02
  2.112548e-02
  1.786309e-02
  1.605700e-02
  1.503555e-02
  1.582419e-02
  2.122187e-02
  3.655257e-02
  6.566006e-02
  9.921382e-02
  1.152982e-01
  9.912833e-02
  6.686691e-02
  4.308564e-02
  3.363246e-02
  3.112315e-02
  3.237897e-02
  4.261314e-02
  9.655141e-02
  3.413285e-01
  8.443080e-01
  9.789607e-01
  9.999000e-01
  9.999000e-01
  9.999000e-01
  9.999000e-01
  9.999000e-01
  9.999000e-01
  9.780099e-01
  8.392800e-01
  3.289980e-01
  9.252928e-02
  4.138739e-02
  3.301379e-02
  3.883714e-02
  7.981960e-02
  2.781514e-01
  7.968389e-01
  9.680522e-01
  9.999000e-01
  9.954718e-01
  9.279504e-01
  6.257123e-01
  1.705985e-01
  4.828562e-02
  2.398957e-02
  2.360132e-02
  4.267134e-02
  1.074893e-01
  2.759468e-01
  5.755827e-01
  8.082385e-01
  9.195675e-01
  9.635584e-01
  9.777734e-01
  9.749547e-01
  9.795572e-01
  9.766291e-01
  9.629825e-01
  9.346073e-01
  8.737423e-01
  7.450668e-01
  4.739505e-01
  1.869941e-01
  6.191727e-02
  2.799039e-02
  1.883059e-02
  1.558722e-02
  1.508378e-02
  2.007840e-02
  4.168331e-02
  1.066183e-01
  2.331510e-01
  3.669152e-01
  4.206233e-01
  3.410475e-01
  1.896422e-01
  7.931595e-02
  4.272667e-02
  3.372594e-02
  3.348985e-02
  4.266556e-02
  9.220754e-02
  3.186819e-01
  8.206525e-01
  9.705769e-01
  9.977521e-01
  9.999000e-01
  9.999000e-01
  9.999000e-01
  9.999000e-01
  9.970304e-01
  9.670362e-01
  8.073167e-01
  2.995196e-01
  8.597671e-02
  4.026606e-02
  3.274327e-02
  3.682575e-02
  6.576113e-02
  2.067158e-01
  6.551744e-01
  9.031068e-01
  9.640410e-01
  9.542150e-01
  8.442207e-01
  4.693668e-01
  1.302852e-01
  4.274803e-02
  2.329028e-02
  1.867742e-02
  2.059932e-02
  3.414959e-02
  7.688219e-02
  1.854077e-01
  4.026974e-01
  6.864245e-01
  8.566982e-01
  9.373287e-01
  9.698743e-01
  9.568686e-01
  9.811813e-01
  9.891703e-01
  9.889271e-01
  9.790021e-01
  9.436560e-01
  8.165195e-01
  4.570659e-01
  1.294266e-01
  4.158585e-02
  2.144441e-02
  1.620871e-02
  1.779283e-02
  3.593627e-02
  1.133438e-01
  3.485809e-01
  6.840538e-01
  8.414434e-01
  8.733118e-01
  7.984404e-01
  5.214232e-01
  1.678583e-01
  6.027399e-02
  3.742624e-02
  3.442870e-02
  4.034240e-02
  7.378264e-02
  2.297540e-01
  6.808747e-01
  9.089685e-01
  9.685280e-01
  9.818014e-01
  9.847587e-01
  9.845981e-01
  9.810376e-01
  9.656004e-01
  8.986714e-01
  6.524652e-01
  2.111929e-01
  6.774489e-02
  3.857007e-02
  3.554772e-02
  3.962105e-02
  5.445558e-02
  1.179067e-01
  3.424494e-01
  6.535345e-01
  7.811345e-01
  7.570410e-01
  5.575854e-01
  2.299369e-01
  7.672262e-02
  3.579338e-02
  2.455110e-02
  1.992686e-02
  1.758771e-02
  1.826423e-02
  2.577592e-02
  4.956575e-02
  1.102376e-01
  2.467166e-01
  4.977463e-01
  7.534979e-01
  8.947165e-01
  8.350181e-01
  9.388903e-01
  9.799229e-01
  9.954307e-01
  9.999000e-01
  9.923613e-01
  9.360736e-01
  6.876012e-01
  2.020809e-01
  5.582399e-02
  2.406017e-02
  1.768134e-02
  2.616912e-02
  8.028467e-02
  2.939867e-01
  7.072271e-01
  9.146621e-01
  9.752976e-01
  9.843616e-01
  9.475166e-01
  7.608397e-01
  2.646000e-01
  7.946617e-02
  4.148472e-02
  3.586870e-02
  3.826673e-02
  5.338717e-02
  1.216380e-01
  3.561454e-01
  6.705297e-01
  8.161950e-01
  8.657829e-01
  8.819160e-01
  8.808248e-01
  8.617539e-01
  8.055165e-01
  6.440584e-01
  3.241057e-01
  1.091330e-01
  5.015892e-02
  4.361596e-02
  5.543242e-02
  7.048125e-02
  7.942661e-02
  9.017479e-02
  1.332120e-01
  2.148467e-01
  2.677291e-01
  2.528725e-01
  1.753449e-01
  8.965422e-02
  5.090187e-02
  3.836459e-02
  3.218598e-02
  2.636258e-02
  2.100713e-02
  1.747955e-02
  1.641213e-02
  1.932555e-02
  3.086232e-02
  6.290923e-02
  1.430563e-01
  3.194116e-01
  6.164702e-01
  4.715007e-01
  7.628190e-01
  9.127553e-01
  9.715232e-01
  9.932367e-01
  9.939473e-01
  9.486245e-01
  7.246380e-01
  2.187527e-01
  5.941829e-02
  2.505132e-02
  2.156103e-02
  4.888234e-02
  1.850217e-01
  5.899590e-01
  8.894869e-01
  9.776514e-01
  9.989423e-01
  9.999000e-01
  9.753006e-01
  8.302893e-01
  3.150675e-01
  9.066926e-02
  4.533802e-02
  3.901683e-02
  3.937191e-02
  4.329903e-02
  6.095065e-02
  1.182583e-01
  2.190316e-01
  3.168981e-01
  3.928866e-01
  4.343872e-01
  4.307484e-01
  3.827502e-01
  3.024472e-01
  2.030373e-01
  1.056039e-01
  5.512509e-02
  4.855985e-02
  7.843462e-02
  1.547070e-01
  2.309158e-01
  2.494789e-01
  2.020974e-01
  1.278419e-01
  9.183252e-02
  8.492835e-02
  7.886112e-02
  6.769212e-02
  6.267097e-02
  7.052912e-02
  7.664850e-02
  7.036747e-02
  5.285530e-02
  3.402000e-02
  2.274917e-02
  1.747152e-02
  1.521645e-02
  1.546946e-02
  2.046599e-02
  3.734586e-02
  8.509450e-02
  2.101722e-01
  1.436398e-01
  3.496503e-01
  6.606548e-01
  8.476131e-01
  9.262739e-01
  9.373039e-01
  8.598603e-01
  5.635260e-01
  1.641673e-01
  4.928098e-02
  2.497469e-02
  3.287126e-02
  1.059666e-01
  3.896940e-01
  8.084421e-01
  9.570691e-01
  9.927465e-01
  9.999000e-01
  9.983086e-01
  9.724665e-01
  8.274153e-01
  3.122003e-01
  9.242554e-02
  5.054590e-02
  4.613197e-02
  4.563210e-02
  4.416638e-02
  4.450639e-02
  5.196655e-02
  6.796512e-02
  8.592770e-02
  1.012861e-01
  1.100973e-01
  1.091068e-01
  9.830325e-02
  8.099184e-02
  6.136817e-02
  4.516602e-02
  4.309416e-02
  7.380741e-02
  2.050146e-01
  5.101748e-01
  7.287926e-01
  7.612849e-01
  6.276704e-01
  3.187085e-01
  1.126504e-01
  5.684763e-02
  4.879542e-02
  6.398032e-02
  1.204210e-01
  2.124013e-01
  2.675192e-01
  2.514167e-01
  1.738272e-01
  8.448468e-02
  3.860972e-02
  2.290092e-02
  1.738489e-02
  1.488738e-02
  1.398499e-02
  1.588059e-02
  2.533281e-02
  5.623114e-02
  4.100187e-02
  9.725052e-02
  2.245666e-01
  4.315246e-01
  6.272245e-01
  6.694403e-01
  5.241733e-01
  2.495065e-01
  8.340675e-02
  3.463399e-02
  2.826840e-02
  6.487096e-02
  2.400224e-01
  6.737256e-01
  9.180318e-01
  9.818664e-01
  9.960439e-01
  9.978286e-01
  9.917762e-01
  9.550275e-01
  7.772584e-01
  2.714830e-01
  9.023831e-02
  6.191205e-02
  6.268309e-02
  6.070117e-02
  5.358454e-02
  4.583498e-02
  4.029885e-02
  3.764439e-02
  3.694683e-02
  3.734095e-02
  3.794695e-02
  3.783693e-02
  3.656205e-02
  3.444413e-02
  3.251408e-02
  3.356519e-02
  4.853216e-02
  1.260257e-01
  4.334456e-01
  8.240743e-01
  9.474346e-01
  9.600258e-01
  8.925644e-01
  6.240053e-01
  1.930451e-01
  6.817087e-02
  5.707560e-02
  1.194545e-01
  3.547044e-01
  6.681016e-01
  7.898457e-01
  7.681394e-01
  5.862802e-01
  2.609737e-01
  8.265204e-02
  3.395554e-02
  2.180902e-02
  1.792077e-02
  1.596692e-02
  1.488803e-02
  1.544924e-02
  2.103133e-02
  2.132107e-02
  3.177414e-02
  5.970897e-02
  1.106491e-01
  1.679599e-01
  1.863365e-01
  1.462262e-01
  8.017443e-02
  3.999803e-02
  2.785231e-02
  4.399096e-02
  1.469336e-01
  4.957779e-01
  8.540874e-01
  9.655135e-01
  9.910394e-01
  9.958307e-01
  9.936912e-01
  9.796073e-01
  9.139773e-01
  6.521775e-01
  2.109605e-01
  9.279655e-02
  9.054883e-02
  1.044342e-01
  9.574376e-02
  7.384503e-02
  5.493433e-02
  4.197776e-02
  3.385893e-02
  2.944612e-02
  2.800042e-02
  2.859611e-02
  2.965736e-02
  2.983817e-02
  2.912726e-02
  2.904438e-02
  3.304964e-02
  5.572319e-02
  1.692147e-01
  5.964103e-01
  9.195103e-01
  9.947083e-01
  9.999000e-01
  9.599155e-01
  7.607261e-01
  2.493465e-01
  8.184714e-02
  7.647857e-02