# vtk DataFile Version 2.0
time_10.vtk
ASCII
DATASET STRUCTURED_GRID
DIMENSIONS    64    64     1
POINTS    4096 float
  0.000000e+00   0.000000e+00   0.000000e+00
  0.000000e+00   1.000000e+00   0.000000e+00
  0.000000e+00   2.000000e+00   0.000000e+00
  0.000000e+00   3.000000e+00   0.000000e+00
  0.000000e+00   4.000000e+00   0.000000e+00
  0.000000e+00   5.000000e+00   0.000000e+00
  0.000000e+00   6.000000e+00   0.000000e+00
  0.000000e+00   7.000000e+00   0.000000e+00
  0.000000e+00   8.000000e+00   0.000000e+00
  0.000000e+00   9.000000e+00   0.000000e+00
  0.000000e+00   1.000000e+01   0.000000e+00
  0.000000e+00   1.100000e+01   0.000000e+00
  0.000000e+00   1.200000e+01   0.000000e+00
  0.000000e+00   1.300000e+01   0.000000e+00
  0.000000e+00   1.400000e+01   0.000000e+00
  0.000000e+00   1.500000e+01   0.000000e+00
  0.000000e+00   1.600000e+01   0.000000e+00
  0.000000e+00   1.700000e+01   0.000000e+00
  0.000000e+00   1.800000e+01   0.000000e+00
  0.000000e+00   1.900000e+01   0.000000e+00
  0.000000e+00   2.000000e+01   0.000000e+00
  0.000000e+00   2.100000e+01   0.000000e+00
  0.000000e+00   2.200000e+01   0.000000e+00
  0.000000e+00   2.300000e+01   0.000000e+00
  0.000000e+00   2.400000e+01   0.000000e+00
  0.000000e+00   2.500000e+01   0.000000e+00
  0.000000e+00   2.600000e+01   0.000000e+00
  0.000000e+00   2.700000e+01   0.000000e+00
  0.000000e+00   2.800000e+01   0.000000e+00
  0.000000e+00   2.900000e+01   0.000000e+00
  0.000000e+00   3.000000e+01   0.000000e+00
  0.000000e+00   3.100000e+01   0.000000e+00
  0.000000e+00   3.200000e+01   0.000000e+00
  0.000000e+00   3.300000e+01   0.000000e+00
  0.000000e+00   3.400000e+01   0.000000e+00
  0.000000e+00   3.500000e+01   0.000000e+00
  0.000000e+00   3.600000e+01   0.000000e+00
  0.000000e+00   3.700000e+01   0.000000e+00
  0.000000e+00   3.800000e+01   0.000000e+00
  0.000000e+00   3.900000e+01   0.000000e+00
  0.000000e+00   4.000000e+01   0.000000e+00
  0.000000e+00   4.100000e+01   0.000000e+00
  0.000000e+00   4.200000e+01   0.000000e+00
  0.000000e+00   4.300000e+01   0.000000e+00
  0.000000e+00   4.400000e+01   0.000000e+00
  0.000000e+00   4.500000e+01   0.000000e+00
  0.000000e+00   4.600000e+01   0.000000e+00
  0.000000e+00   4.700000e+01   0.000000e+00
  0.000000e+00   4.800000e+01   0.000000e+00
  0.000000e+00   4.900000e+01   0.000000e+00
  0.000000e+00   5.000000e+01   0.000000e+00
  0.000000e+00   5.100000e+01   0.000000e+00
  0.000000e+00   5.200000e+01   0.000000e+00
  0.000000e+00   5.300000e+01   0.000000e+00
  0.000000e+00   5.400000e+01   0.000000e+00
  0.000000e+00   5.500000e+01   0.000000e+00
  0.000000e+00   5.600000e+01   0.000000e+00
  0.000000e+00   5.700000e+01   0.000000e+00
  0.000000e+00   5.800000e+01   0.000000e+00
  0.000000e+00   5.900000e+01   0.000000e+00
  0.000000e+00   6.000000e+01   0.000000e+00
  0.000000e+00   6.100000e+01   0.000000e+00
  0.000000e+00   6.200000e+01   0.000000e+00
  0.000000e+00   6.300000e+01   0.000000e+00
  1.000000e+00   0.000000e+00   0.000000e+00
  1.000000e+00   1.000000e+00   0.000000e+00
  1.000000e+00   2.000000e+00   0.000000e+00
  1.000000e+00   3.000000e+00   0.000000e+00
  1.000000e+00   4.000000e+00   0.000000e+00
  1.000000e+00   5.000000e+00   0.000000e+00
  1.000000e+00   6.000000e+00   0.000000e+00
  1.000000e+00   7.000000e+00   0.000000e+00
  1.000000e+00   8.000000e+00   0.000000e+00
  1.000000e+00   9.000000e+00   0.000000e+00
  1.000000e+00   1.000000e+01   0.000000e+00
  1.000000e+00   1.100000e+01   0.000000e+00
  1.000000e+00   1.200000e+01   0.000000e+00
  1.000000e+00   1.300000e+01   0.000000e+00
  1.000000e+00   1.400000e+01   0.000000e+00
  1.000000e+00   1.500000e+01   0.000000e+00
  1.000000e+00   1.600000e+01   0.000000e+00
  1.000000e+00   1.700000e+01   0.000000e+00
  1.000000e+00   1.800000e+01   0.000000e+00
  1.000000e+00   1.900000e+01   0.000000e+00
  1.000000e+00   2.000000e+01   0.000000e+00
  1.000000e+00   2.100000e+01   0.000000e+00
  1.000000e+00   2.200000e+01   0.000000e+00
  1.000000e+00   2.300000e+01   0.000000e+00
  1.000000e+00   2.400000e+01   0.000000e+00
  1.000000e+00   2.500000e+01   0.000000e+00
  1.000000e+00   2.600000e+01   0.000000e+00
  1.000000e+00   2.700000e+01   0.000000e+00
  1.000000e+00   2.800000e+01   0.000000e+00
  1.000000e+00   2.900000e+01   0.000000e+00
  1.000000e+00   3.000000e+01   0.000000e+00
  1.000000e+00   3.100000e+01   0.000000e+00
  1.000000e+00   3.200000e+01   0.000000e+00
  1.000000e+00   3.300000e+01   0.000000e+00
  1.000000e+00   3.400000e+01   0.000000e+00
  1.000000e+00   3.500000e+01   0.000000e+00
  1.000000e+00   3.600000e+01   0.000000e+00
  1.000000e+00   3.700000e+01   0.000000e+00
  1.000000e+00   3.800000e+01   0.000000e+00
  1.000000e+00   3.900000e+01   0.000000e+00
  1.000000e+00   4.000000e+01   0.000000e+00
  1.000000e+00   4.100000e+01   0.000000e+00
  1.000000e+00   4.200000e+01   0.000000e+00
  1.000000e+00   4.300000e+01   0.000000e+00
  1.000000e+00   4.400000e+01   0.000000e+00
  1.000000e+00   4.500000e+01   0.000000e+00
  1.000000e+00   4.600000e+01   0.000000e+00
  1.000000e+00   4.700000e+01   0.000000e+00
  1.000000e+00   4.800000e+01   0.000000e+00
  1.000000e+00   4.900000e+01   0.000000e+00
  1.000000e+00   5.000000e+01   0.000000e+00
  1.000000e+00   5.100000e+01   0.000000e+00
  1.000000e+00   5.200000e+01   0.000000e+00
  1.000000e+00   5.300000e+01   0.000000e+00
  1.000000e+00   5.400000e+01   0.000000e+00
  1.000000e+00   5.500000e+01   0.000000e+00
  1.000000e+00   5.600000e+01   0.000000e+00
  1.000000e+00   5.700000e+01   0.000000e+00
  1.000000e+00   5.800000e+01   0.000000e+00
  1.000000e+00   5.900000e+01   0.000000e+00
  1.000000e+00   6.000000e+01   0.000000e+00
  1.000000e+00   6.100000e+01   0.000000e+00
  1.000000e+00   6.200000e+01   0.000000e+00
  1.000000e+00   6.300000e+01   0.000000e+00
  2.000000e+00   0.000000e+00   0.000000e+00
  2.000000e+00   1.000000e+00   0.000000e+00
  2.000000e+00   2.000000e+00   0.000000e+00
  2.000000e+00   3.000000e+00   0.000000e+00
  2.000000e+00   4.000000e+00   0.000000e+00
  2.000000e+00   5.000000e+00   0.000000e+00
  2.000000e+00   6.000000e+00   0.000000e+00
  2.000000e+00   7.000000e+00   0.000000e+00
  2.000000e+00   8.000000e+00   0.000000e+00
  2.000000e+00   9.000000e+00   0.000000e+00
  2.000000e+00   1.000000e+01   0.000000e+00
  2.000000e+00   1.100000e+01   0.000000e+00
  2.000000e+00   1.200000e+01   0.000000e+00
  2.000000e+00   1.300000e+01   0.000000e+00
  2.000000e+00   1.400000e+01   0.000000e+00
  2.000000e+00   1.500000e+01   0.000000e+00
  2.000000e+00   1.600000e+01   0.000000e+00
  2.000000e+00   1.700000e+01   0.000000e+00
  2.000000e+00   1.800000e+01   0.000000e+00
  2.000000e+00   1.900000e+01   0.000000e+00
  2.000000e+00   2.000000e+01   0.000000e+00
  2.000000e+00   2.100000e+01   0.000000e+00
  2.000000e+00   2.200000e+01   0.000000e+00
  2.000000e+00   2.300000e+01   0.000000e+00
  2.000000e+00   2.400000e+01   0.000000e+00
  2.000000e+00   2.500000e+01   0.000000e+00
  2.000000e+00   2.600000e+01   0.000000e+00
  2.000000e+00   2.700000e+01   0.000000e+00
  2.000000e+00   2.800000e+01   0.000000e+00
  2.000000e+00   2.900000e+01   0.000000e+00
  2.000000e+00   3.000000e+01   0.000000e+00
  2.000000e+00   3.100000e+01   0.000000e+00
  2.000000e+00   3.200000e+01   0.000000e+00
  2.000000e+00   3.300000e+01   0.000000e+00
  2.000000e+00   3.400000e+01   0.000000e+00
  2.000000e+00   3.500000e+01   0.000000e+00
  2.000000e+00   3.600000e+01   0.000000e+00
  2.000000e+00   3.700000e+01   0.000000e+00
  2.000000e+00   3.800000e+01   0.000000e+00
  2.000000e+00   3.900000e+01   0.000000e+00
  2.000000e+00   4.000000e+01   0.000000e+00
  2.000000e+00   4.100000e+01   0.000000e+00
  2.000000e+00   4.200000e+01   0.000000e+00
  2.000000e+00   4.300000e+01   0.000000e+00
  2.000000e+00   4.400000e+01   0.000000e+00
  2.000000e+00   4.500000e+01   0.000000e+00
  2.000000e+00   4.600000e+01   0.000000e+00
  2.000000e+00   4.700000e+01   0.000000e+00
  2.000000e+00   4.800000e+01   0.000000e+00
  2.000000e+00   4.900000e+01   0.000000e+00
  2.000000e+00   5.000000e+01   0.000000e+00
  2.000000e+00   5.100000e+01   0.000000e+00
  2.000000e+00   5.200000e+01   0.000000e+00
  2.000000e+00   5.300000e+01   0.000000e+00
  2.000000e+00   5.400000e+01   0.000000e+00
  2.000000e+00   5.500000e+01   0.000000e+00
  2.000000e+00   5.600000e+01   0.000000e+00
  2.000000e+00   5.700000e+01   0.000000e+00
  2.000000e+00   5.800000e+01   0.000000e+00
  2.000000e+00   5.900000e+01   0.000000e+00
  2.000000e+00   6.000000e+01   0.000000e+00
  2.000000e+00   6.100000e+01   0.000000e+00
  2.000000e+00   6.200000e+01   0.000000e+00
  2.000000e+00   6.300000e+01   0.000000e+00
  3.000000e+00   0.000000e+00   0.000000e+00
  3.000000e+00   1.000000e+00   0.000000e+00
  3.000000e+00   2.000000e+00   0.000000e+00
  3.000000e+00   3.000000e+00   0.000000e+00
  3.000000e+00   4.000000e+00   0.000000e+00
  3.000000e+00   5.000000e+00   0.000000e+00
  3.000000e+00   6.000000e+00   0.000000e+00
  3.000000e+00   7.000000e+00   0.000000e+00
  3.000000e+00   8.000000e+00   0.000000e+00
  3.000000e+00   9.000000e+00   0.000000e+00
  3.000000e+00   1.000000e+01   0.000000e+00
  3.000000e+00   1.100000e+01   0.000000e+00
  3.000000e+00   1.200000e+01   0.000000e+00
  3.000000e+00   1.300000e+01   0.000000e+00
  3.000000e+00   1.400000e+01   0.000000e+00
  3.000000e+00   1.500000e+01   0.000000e+00
  3.000000e+00   1.600000e+01   0.000000e+00
  3.000000e+00   1.700000e+01   0.000000e+00
  3.000000e+00   1.800000e+01   0.000000e+00
  3.000000e+00   1.900000e+01   0.000000e+00
  3.000000e+00   2.000000e+01   0.000000e+00
  3.000000e+00   2.100000e+01   0.000000e+00
  3.000000e+00   2.200000e+01   0.000000e+00
  3.000000e+00   2.300000e+01   0.000000e+00
  3.000000e+00   2.400000e+01   0.000000e+00
  3.000000e+00   2.500000e+01   0.000000e+00
  3.000000e+00   2.600000e+01   0.000000e+00
[...]
POINT_DATA  4096
SCALARS CON float 1
LOOKUP_TABLE default
  5.939379e-01
  9.203121e-01
  9.917968e-01
  9.999000e-01
  9.999000e-01
  9.967847e-01
  9.669997e-01
  8.068976e-01
  2.913868e-01
  7.573333e-02
  2.826287e-02
  1.789876e-02
  1.547474e-02
  1.586921e-02
  1.809752e-02
  2.149773e-02
  2.531440e-02
  2.893052e-02
  3.196526e-02
  3.400352e-02
  3.429633e-02
  3.228396e-02
  2.833628e-02
  2.421538e-02
  2.402508e-02
  3.909243e-02
  1.111028e-01
  3.454473e-01
  7.178856e-01
  9.074215e-01
  9.663035e-01
  9.780994e-01
  9.688802e-01
  9.386655e-01
  8.842153e-01
  8.103776e-01
  7.052523e-01
  5.142645e-01
  2.815774e-01
  1.232903e-01
  5.440523e-02
  3.661502e-02
  3.633906e-02
  4.482334e-02
  6.386587e-02
  8.691774e-02
  9.137180e-02
  7.218518e-02
  4.948746e-02
  3.778099e-02
  3.664028e-02
  5.728741e-02
  1.489823e-01
  3.892903e-01
  6.584104e-01
  7.550484e-01
  6.992933e-01
  4.645360e-01
  1.867111e-01
  6.213468e-02
  2.962531e-02
  2.660400e-02
  4.779894e-02
  1.605332e-01
  5.190631e-01
  8.860154e-01
  9.798429e-01
  9.957390e-01
  9.941185e-01
  9.792314e-01
  9.153350e-01
  6.693607e-01
  2.073220e-01
  6.004375e-02
  2.924242e-02
  2.363130e-02
  2.486659e-02
  3.040783e-02
  3.897225e-02
  4.899415e-02
  5.987762e-02
  7.152284e-02
  8.295963e-02
  9.106707e-02
  9.115741e-02
  8.038713e-02
  6.082033e-02
  3.982683e-02
  2.735455e-02
  2.586220e-02
  4.437902e-02
  1.236415e-01
  3.566858e-01
  7.140130e-01
  9.027166e-01
  9.652401e-01
  9.814473e-01
  9.817245e-01
  9.747571e-01
  9.624219e-01
  9.384279e-01
  8.759622e-01
  7.097951e-01
  3.628302e-01
  1.177498e-01
  5.274441e-02
  4.757195e-02
  7.436463e-02
  1.553081e-01
  2.637260e-01
  2.824589e-01
  1.905224e-01
  8.904612e-02
  5.039101e-02
  4.901362e-02
  1.074024e-01
  3.610614e-01
  7.568657e-01
  9.192646e-01
  9.574065e-01
  9.358516e-01
  8.106228e-01
  4.463518e-01
  1.237851e-01
  4.000041e-02
  2.717564e-02
  4.424687e-02
  1.405461e-01
  3.050483e-01
  7.184300e-01
  9.016084e-01
  9.493674e-01
  9.463546e-01
  8.984878e-01
  7.466542e-01
  3.971982e-01
  1.347884e-01
  7.024677e-02
  6.361599e-02
  7.200904e-02
  9.238270e-02
  1.276214e-01
  1.706648e-01
  2.125421e-01
  2.527240e-01
  2.937338e-01
  3.334932e-01
  3.599923e-01
  3.541958e-01
  3.029467e-01
  2.099612e-01
  1.051176e-01
  4.656885e-02
  2.711572e-02
  2.537480e-02
  4.450090e-02
  1.210892e-01
  3.410895e-01
  6.952950e-01
  8.947952e-01
  9.646324e-01
  9.860102e-01
  9.923780e-01
  9.937700e-01
  9.910810e-01
  9.769973e-01
  9.140134e-01
  6.756864e-01
  2.244577e-01
  7.982065e-02
  6.859598e-02
  1.452773e-01
  4.238409e-01
  7.268113e-01
  7.613710e-01
  5.312089e-01
  1.838747e-01
  7.264107e-02
  6.600245e-02
  1.773196e-01
  6.130958e-01
  9.073910e-01
  9.831211e-01
  9.970509e-01
  9.892020e-01
  9.322603e-01
  6.891771e-01
  2.006026e-01
  5.179245e-02
  2.548193e-02
  3.316096e-02
  8.720788e-02
  1.211340e-01
  3.287897e-01
  5.948380e-01
  7.229638e-01
  7.186112e-01
  5.942788e-01
  3.660275e-01
  1.931670e-01
  1.570474e-01
  2.014245e-01
  2.546630e-01
  3.139599e-01
  4.078637e-01
  5.453595e-01
  6.720192e-01
  7.510994e-01
  7.966801e-01
  8.264717e-01
  8.479139e-01
  8.603456e-01
  8.564363e-01
  8.136364e-01
  6.601443e-01
  3.253496e-01
  1.016241e-01
  3.849930e-02
  2.319749e-02
  2.298321e-02
  4.118208e-02
  1.113815e-01
  3.149426e-01
  6.668346e-01
  8.817307e-01
  9.614531e-01
  9.881293e-01
  9.973942e-01
  9.999000e-01
  9.986409e-01
  9.683921e-01
  8.078816e-01
  3.055093e-01
  1.020896e-01
  8.629337e-02
  2.085764e-01
  6.338169e-01
  9.031468e-01
  9.254385e-01
  7.314144e-01
  2.559448e-01
  8.822371e-02
  7.693310e-02
  2.230466e-01
  7.337305e-01
  9.490652e-01
  9.942862e-01
  9.999000e-01
  9.972244e-01
  9.642422e-01
  7.944893e-01
  2.671460e-01
  6.219721e-02
  2.266933e-02
  2.219766e-02
  4.341350e-02
  4.267912e-02
  9.131006e-02
  1.608583e-01
  2.065741e-01
  2.072286e-01
  1.716245e-01
  1.377029e-01
  1.868843e-01
  4.118197e-01
  6.647763e-01
  7.828591e-01
  8.305744e-01
  8.642923e-01
  8.999570e-01
  9.302670e-01
  9.499840e-01
  9.622518e-01
  9.707910e-01
  9.772612e-01
  9.815467e-01
  9.817917e-01
  9.696681e-01
  9.005386e-01
  6.301395e-01
  1.874855e-01
  5.568083e-02
  2.616177e-02
  1.893250e-02
  2.018310e-02
  3.676753e-02
  9.902267e-02
  2.806456e-01
  6.187467e-01
  8.533821e-01
  9.494098e-01
  9.840156e-01
  9.962204e-01
  9.967633e-01
  9.667986e-01
  8.066323e-01
  3.069800e-01
  1.025798e-01
  8.283355e-02
  1.865256e-01
  5.596602e-01
  8.440268e-01
  8.674135e-01
  6.502059e-01
  2.216605e-01
  7.994892e-02
  7.396195e-02
  2.228193e-01
  7.407637e-01
  9.507670e-01
  9.938352e-01
  9.999000e-01
  9.974261e-01
  9.729746e-01
  8.413824e-01
  3.471658e-01
  7.720704e-02
  2.092618e-02
  1.465841e-02
  2.163657e-02
  1.871801e-02
  2.978328e-02
  4.371406e-02
  5.377436e-02
  5.744866e-02
  6.305289e-02
  1.073180e-01
  3.155124e-01
  7.440007e-01
  9.177581e-01
  9.627232e-01
  9.733457e-01
  9.773078e-01
  9.813530e-01
  9.855618e-01
  9.891913e-01
  9.923778e-01
  9.953789e-01
  9.980962e-01
  9.999000e-01
  9.999000e-01
  9.967986e-01
  9.553512e-01
  7.478101e-01
  2.346198e-01
  6.573777e-02
  2.877794e-02
  1.926463e-02
  1.610577e-02
  1.788719e-02
  3.224525e-02
  8.386923e-02
  2.307758e-01
  5.230680e-01
  7.849320e-01
  9.076374e-01
  9.523950e-01
  9.543761e-01
  8.953545e-01
  6.616218e-01
  2.251243e-01
  8.138900e-02
  6.359620e-02
  1.085149e-01
  2.666523e-01
  4.837908e-01
  5.097822e-01
  3.123931e-01
  1.204701e-01
  5.692438e-02
  6.027790e-02
  1.825102e-01
  6.552138e-01
  9.267938e-01
  9.878770e-01
  9.982716e-01
  9.965499e-01
  9.780271e-01
  8.811511e-01
  4.804416e-01
  1.096830e-01
  2.341727e-02
  1.034086e-02
  1.218227e-02
  1.085220e-02
  1.499743e-02
  1.944945e-02
  2.366155e-02
  2.928513e-02
  4.663926e-02
  1.248840e-01
  4.412459e-01
  8.703768e-01
  9.807396e-01
  9.996110e-01
  9.999000e-01
  9.969995e-01
  9.940523e-01
  9.919705e-01
  9.911811e-01
  9.917220e-01
  9.932698e-01
  9.952593e-01
  9.968311e-01
  9.962258e-01
  9.864321e-01
  9.287213e-01
  6.841201e-01
  2.077296e-01
  6.101345e-02
  2.884349e-02
  2.027786e-02
  1.662662e-02
  1.505841e-02
  1.697697e-02
  2.844454e-02
  6.589276e-02
  1.629638e-01
  3.531036e-01
  6.022612e-01
  7.384667e-01
  7.466540e-01
  6.137803e-01
  3.230083e-01
  1.152908e-01
  5.553359e-02
  4.742928e-02
  6.120536e-02
  1.011403e-01
  1.547042e-01
  1.615979e-01
  1.112581e-01
  6.224709e-02
  4.090297e-02
  4.513564e-02
  1.231878e-01
  4.699235e-01
  8.666029e-01
  9.739224e-01
  9.947665e-01
  9.956438e-01
  9.831683e-01
  9.208294e-01
  6.493816e-01
  1.766979e-01
  3.610603e-02
  9.876353e-03
  7.913894e-03
  7.956074e-03
  1.039965e-02
  1.342199e-02
  1.708387e-02
  2.342456e-02
  4.234656e-02
  1.220128e-01
  4.394312e-01
  8.717636e-01
  9.822367e-01
  9.999000e-01
  9.981269e-01
  9.910193e-01
  9.812387e-01
  9.710970e-01
  9.639456e-01
  9.609914e-01
  9.612688e-01
  9.627383e-01
  9.622188e-01
  9.526048e-01
  9.124019e-01
  7.757048e-01
  4.257533e-01
  1.278517e-01
  4.617194e-02
  2.720487e-02
  2.185606e-02
  1.994216e-02
  1.952720e-02
  2.008331e-02
  2.271089e-02
  3.133514e-02
  5.405925e-02
  1.016316e-01
  1.733944e-01
  2.277733e-01
  2.317938e-01
  1.805754e-01
  1.030197e-01
  5.490707e-02
  3.981594e-02
  3.839233e-02
  4.312876e-02
  5.344332e-02
  6.625296e-02
  7.036338e-02
  6.122794e-02
  4.768598e-02
  3.701651e-02
  3.602546e-02
  7.497119e-02
  2.766251e-01
  7.449795e-01
  9.413876e-01
  9.868229e-01
  9.939911e-01
  9.873833e-01
  9.513397e-01
  7.886364e-01
  3.212036e-01
  7.803691e-02
  1.869477e-02
  7.878782e-03
  9.600313e-03
  9.008844e-03
  1.091575e-02
  1.415337e-02
  1.978496e-02
  3.414927e-02
  8.772322e-02
  3.002482e-01
  7.416885e-01
  9.199862e-01
  9.605793e-01
  9.590917e-01
  9.377881e-01
  8.982157e-01
  8.504625e-01
  8.148527e-01
  7.975486e-01
  7.933530e-01
  7.932224e-01
  7.846302e-01
  7.432480e-01
  6.168672e-01
  3.728213e-01
  1.603883e-01
  6.209946e-02
  3.382154e-02
  2.691611e-02
  2.720079e-02
  3.322687e-02
  4.384538e-02
  5.366308e-02
  6.031949e-02
  6.544862e-02
  7.187224e-02
  8.124893e-02
  9.074825e-02
  9.076802e-02
  7.845643e-02
  6.083363e-02
  4.441164e-02
  3.535822e-02
  3.296014e-02
  3.385975e-02
  3.697493e-02
  4.370459e-02
  5.689880e-02
  7.448771e-02
  8.328296e-02
  7.560702e-02
  5.626839e-02
  3.993578e-02
  4.944211e-02
  1.478255e-01
  5.079216e-01
  8.556266e-01
  9.637896e-01
  9.883931e-01
  9.894651e-01
  9.723496e-01
  8.931538e-01
  6.001888e-01
  2.083440e-01
  5.857041e-02
  1.856516e-02
  2.536752e-02
  1.282071e-02
  1.043640e-02
  1.191201e-02
  1.589970e-02
  2.450671e-02
  4.954161e-02
  1.372853e-01
  3.831178e-01
  6.547098e-01
  7.603834e-01
  7.593873e-01
  6.860227e-01
  5.382452e-01
  3.769662e-01
  2.846860e-01
  2.500375e-01
  2.428770e-01
  2.440181e-01
  2.396827e-01
  2.174173e-01
  1.690256e-01
  1.044520e-01
  5.720801e-02
  3.569898e-02
  2.960203e-02
  3.223950e-02
  4.880727e-02
  9.363699e-02
  1.644195e-01
  2.243912e-01
  2.595296e-01
  2.762218e-01
  2.808564e-01
  2.720760e-01
  2.400395e-01
  1.761568e-01
  1.002346e-01
  5.363166e-02
  3.574274e-02
  3.070069e-02
  3.027464e-02
  3.192504e-02
  3.714664e-02
  5.461500e-02
  1.066614e-01
  1.972785e-01
  2.572032e-01
  2.430209e-01
  1.652826e-01
  8.111344e-02
  4.687464e-02
  7.493300e-02
  2.452423e-01
  6.451793e-01
  8.909670e-01
  9.673726e-01
  9.857910e-01
  9.833294e-01
  9.541170e-01
  8.365747e-01
  5.202636e-01
  2.022090e-01
  6.871380e-02
  9.649516e-02
  3.692763e-02
  1.718821e-02
  1.216723e-02
  1.304014e-02
  1.741985e-02
  2.718952e-02
  5.186728e-02
  1.097328e-01
  1.841051e-01
  2.232548e-01
  2.167820e-01
  1.784283e-01
  1.267059e-01
  8.392620e-02
  6.245094e-02
  5.676655e-02
  5.908106e-02
  6.342208e-02
  6.487048e-02
  6.078462e-02
  5.153393e-02
  4.034427e-02
  3.242908e-02
  2.944602e-02
  3.243113e-02
  5.158289e-02
  1.272267e-01
  3.308130e-01
  6.031418e-01
  7.540228e-01
  8.065990e-01
  8.220724e-01
  8.231813e-01
  8.089560e-01
  7.535153e-01
  5.904321e-01
  3.086252e-01
  1.143906e-01
  4.829691e-02
  3.227261e-02
  2.974979e-02
  3.216449e-02
  4.488428e-02
  1.011422e-01
  3.044318e-01
  6.227944e-01
  7.677675e-01
  7.483622e-01
  5.544166e-01
  2.395976e-01
  7.858219e-02
  4.810507e-02
  9.903227e-02
  3.052106e-01
  6.774213e-01
  8.905961e-01
  9.629272e-01
  9.822011e-01
  9.788985e-01
  9.454519e-01
  8.324395e-01
  5.685985e-01
  2.555054e-01
  3.468437e-01
  1.424133e-01
  5.608888e-02
  2.530176e-02
  1.617353e-02
  1.543113e-02
  1.861548e-02
  2.531955e-02
  3.677761e-02
  4.945217e-02
  5.488696e-02
  5.095470e-02
  4.103170e-02
  3.002450e-02
  2.273842e-02
  2.193993e-02
  2.797009e-02
  3.927225e-02
  4.989838e-02
  5.155352e-02
  4.440571e-02
  3.625799e-02
  3.126841e-02
  2.919704e-02
  3.041964e-02
  4.151841e-02
  9.674907e-02
  3.202127e-01
  7.201301e-01
  9.014677e-01
  9.553502e-01
  9.693508e-01
  9.725602e-01
  9.725460e-01
  9.689646e-01
  9.528880e-01
  8.905842e-01
  6.838129e-01
  2.749100e-01
  8.404881e-02
  3.885638e-02
  3.076793e-02
  3.414289e-02
  5.977771e-02
  1.860161e-01
  6.157513e-01
  8.898454e-01
  9.606435e-01
  9.544845e-01
  8.593952e-01
  5.350956e-01
  1.505952e-01
  4.918060e-02
  4.424001e-02
  1.060465e-01
  3.036025e-01
  6.524438e-01
  8.719466e-01
  9.545181e-01
  9.792151e-01
  9.787983e-01
  9.522844e-01
  8.690706e-01
  6.675601e-01
  7.596791e-01
  4.777533e-01
  2.222457e-01
  9.792945e-02
  4.867101e-02
  3.026179e-02
  2.362384e-02
  2.210575e-02
  2.257845e-02
  2.330307e-02
  2.255938e-02
  2.002526e-02
  1.678701e-02
  1.462575e-02
  1.609842e-02
  2.585707e-02
  5.224341e-02
  9.741781e-02
  1.375101e-01
  1.327924e-01
  8.946973e-02
  5.182954e-02
  3.604266e-02
  3.133315e-02
  3.339407e-02
  5.328928e-02
  1.569151e-01
  5.542932e-01
  8.914823e-01
  9.791765e-01
  9.959248e-01
  9.981400e-01
  9.981714e-01
  9.980706e-01
  9.977320e-01
  9.946064e-01
  9.739651e-01
  8.694253e-01
  4.886196e-01
  1.361193e-01
  4.843651e-02
  3.249557e-02
  3.604499e-02
  7.167179e-02
  2.493251e-01
  7.681641e-01
  9.612144e-01
  9.999000e-01
  9.986969e-01
  9.511091e-01
  7.280133e-01
  2.170413e-01
  5.840889e-02
  2.924740e-02
  3.891425e-02
  9.632339e-02
  2.664326e-01
  5.931306e-01
  8.388850e-01
  9.416525e-01
  9.755474e-01
  9.806394e-01
  9.641098e-01
  9.073380e-01
  9.344118e-01
  8.406156e-01
  6.519257e-01
  3.858762e-01
  2.127291e-01
  1.232897e-01
  7.360947e-02
  4.660070e-02
  3.057268e-02
  2.244002e-02
  1.842995e-02
  1.569268e-02
  1.385690e-02
  1.455457e-02
  2.347187e-02
  5.935200e-02
  1.664594e-01
  3.494048e-01
  4.957202e-01
  4.618655e-01
  2.708683e-01
  1.051541e-01
  4.911103e-02
  3.492472e-02
  3.542656e-02
  5.872522e-02
  1.836543e-01
  6.418750e-01
  9.289196e-01
  9.920450e-01
  9.999000e-01
  9.999000e-01
  9.999000e-01
  9.999000e-01
  9.999000e-01
  9.999000e-01
  9.909749e-01
  9.205689e-01
  6.042217e-01
  1.685969e-01
  5.448540e-02
  3.355522e-02
  3.625233e-02
  7.213285e-02
  2.518803e-01
  7.729118e-01
  9.626575e-01
  9.999000e-01
  9.999000e-01
  9.593895e-01
  7.543097e-01
  2.310074e-01
  6.148918e-02
  2.647642e-02
  2.179919e-02
  3.334706e-02
  8.011869e-02
  2.171080e-01
  5.048936e-01
  7.846780e-01
  9.167656e-01
  9.645049e-01
  9.776529e-01
  9.702502e-01
  9.661057e-01
  9.517749e-01
  9.080657e-01
  8.223330e-01
  6.925852e-01
  4.992184e-01
  3.076889e-01
  1.746342e-01
  8.222181e-02
  3.766100e-02
  2.230040e-02
  1.661315e-02
  1.460144e-02
  1.849748e-02
  4.481172e-02
  1.593442e-01
  4.909227e-01
  7.926801e-01
  8.916349e-01
  8.608878e-01
  6.370846e-01
  2.135000e-01
  7.023258e-02
  3.864083e-02
  3.521351e-02
  5.322979e-02
  1.533654e-01
  5.418915e-01
  8.865461e-01
  9.779155e-01
  9.959668e-01
  9.988886e-01
  9.994383e-01
  9.997459e-01
  9.999000e-01
  9.984642e-01
  9.829499e-01
  8.949847e-01
  5.439058e-01
  1.518081e-01
  5.187493e-02
  3.350659e-02
  3.523445e-02
  6.161021e-02
  1.933779e-01
  6.354791e-01
  8.995628e-01
  9.669508e-01
  9.675446e-01
  8.995700e-01
  6.267629e-01
  1.840188e-01
  5.468411e-02
  2.648976e-02
  1.950136e-02
  1.919478e-02
  2.849072e-02
  6.344658e-02
  1.636287e-01
  3.858678e-01
  6.839065e-01
  8.541605e-01
  9.304483e-01
  9.597025e-01
  9.120435e-01
  9.491428e-01
  9.612899e-01
  9.543591e-01
  9.305307e-01
  8.817323e-01
  7.897631e-01
  5.881064e-01
  2.717609e-01
  8.713580e-02
  3.378691e-02
  1.945745e-02
  1.629502e-02
  2.639848e-02
  8.942813e-02
  3.523381e-01
  7.854472e-01
  9.496737e-01
  9.870397e-01
  9.650505e-01
  8.045187e-01
  2.943202e-01
  8.520540e-02
  4.025807e-02
  3.332840e-02
  4.212442e-02
  9.410711e-02
  3.085819e-01
  7.111503e-01
  9.003468e-01
  9.575511e-01
  9.734716e-01
  9.782352e-01
  9.795936e-01
  9.780669e-01
  9.679835e-01
  9.236029e-01
  7.552603e-01
  3.400813e-01
  1.015182e-01
  4.469269e-02
  3.575545e-02
  3.846035e-02
  5.223059e-02
  1.126265e-01
  3.326192e-01
  6.550932e-01
  7.956665e-01
  7.976039e-01
  6.594240e-01
  3.314236e-01
  1.080986e-01
  4.571805e-02
  2.931072e-02
  2.262791e-02
  1.886994e-02
  1.831889e-02
  2.458670e-02
  4.760531e-02
  1.095502e-01
  2.451235e-01
  4.743726e-01
  7.051135e-01
  8.367477e-01
  6.515924e-01
  8.246407e-01
  9.235664e-01
  9.668636e-01
  9.811013e-01
  9.802177e-01
  9.607963e-01
  8.808818e-01
  6.070601e-01
  1.836702e-01
  5.360510e-02
  2.360954e-02
  1.912026e-02
  4.133530e-02
  1.686674e-01
  6.067761e-01
  9.087473e-01
  9.868036e-01
  9.999000e-01
  9.755686e-01
  8.227374e-01
  3.002021e-01
  8.403493e-02
  3.889687e-02
  3.146982e-02
  3.395679e-02
  5.199878e-02
  1.250506e-01
  3.289437e-01
  6.106134e-01
  7.684175e-01
  8.264864e-01
  8.470851e-01
  8.523167e-01
  8.435962e-01
  8.050587e-01
  6.823496e-01
  4.014370e-01
  1.507277e-01
  6.147293e-02
  4.619363e-02
  5.591225e-02
  6.944685e-02
  7.681936e-02
  8.624455e-02
  1.294773e-01
  2.176326e-01
  2.835776e-01
  2.852281e-01
  2.191716e-01
  1.246585e-01
  7.253043e-02
  5.611372e-02
  4.604563e-02
  3.474632e-02
  2.523590e-02
  1.968782e-02
  1.809592e-02
  2.134579e-02
  3.357626e-02
  6.362099e-02
  1.251005e-01
  2.310878e-01
  4.099988e-01
  2.089061e-01
  4.309852e-01
  7.311539e-01
  9.049705e-01
  9.724402e-01
  9.954692e-01
  9.979928e-01
  9.637284e-01
  7.819921e-01
  2.642419e-01
  7.076015e-02
  2.745677e-02
  2.468870e-02
  7.061816e-02
  2.937670e-01
  7.774860e-01
  9.544728e-01
  9.929759e-01
  9.936096e-01
  9.523267e-01
  7.510070e-01
  2.430970e-01
  7.008844e-02
  3.650118e-02
  3.155606e-02
  3.166876e-02
  3.550152e-02
  5.184792e-02
  9.787639e-02
  1.751576e-01
  2.475987e-01
  2.990326e-01
  3.301259e-01
  3.404872e-01
  3.262883e-01
  2.832391e-01
  2.103502e-01
  1.215562e-01
  6.377806e-02
  5.247884e-02
  8.395573e-02
  1.609529e-01
  2.310055e-01
  2.422228e-01
  1.904145e-01
  1.190559e-01
  8.967563e-02
  8.820786e-02
  8.807702e-02
  8.512603e-02
  9.435447e-02
  1.239352e-01
  1.456860e-01
  1.291040e-01
  8.588667e-02
  4.786657e-02
  2.795770e-02
  2.036525e-02
  1.810745e-02
  1.890172e-02
  2.334465e-02
  3.392623e-02
  5.562394e-02
  1.029018e-01
  5.223240e-02
  1.272229e-01
  3.318597e-01
  6.828039e-01
  8.922727e-01
  9.686376e-01
  9.886826e-01
  9.609842e-01
  7.852284e-01
  2.696978e-01
  7.284854e-02
  3.033680e-02
  3.904144e-02
  1.378226e-01
  5.067843e-01
  8.747270e-01
  9.723646e-01
  9.893546e-01
  9.741731e-01
  8.844716e-01
  5.583102e-01
  1.591055e-01
  5.463292e-02
  3.878003e-02
  3.848723e-02
  3.738866e-02
  3.468276e-02
  3.449135e-02
  4.041292e-02
  5.266304e-02
  6.587350e-02
  7.655757e-02
  8.380512e-02
  8.681076e-02
  8.435493e-02
  7.565245e-02
  6.164251e-02
  4.731012e-02
  4.543367e-02
  8.144771e-02
  2.327662e-01
  5.394062e-01
  7.347933e-01
  7.516924e-01
  5.994081e-01
  2.896652e-01
  1.038010e-01
  5.605444e-02
  5.452616e-02
  8.916973e-02
  2.084955e-01
  3.946696e-01
  5.127529e-01
  4.658592e-01
  2.963886e-01
  1.330792e-01
  5.222660e-02
  2.756143e-02
  2.077421e-02
  1.871548e-02
  1.804630e-02
  1.823374e-02
  2.017371e-02
  2.770655e-02
  1.967177e-02
  3.735224e-02
  1.022383e-01
  2.889360e-01
  6.160903e-01
  8.209406e-01
  8.860485e-01
  8.428568e-01
  6.023914e-01
  1.919683e-01
  5.928466e-02
  3.680439e-02
  7.968016e-02
  2.866413e-01
  7.332516e-01
  9.340270e-01
  9.794034e-01
  9.783990e-01
  9.291847e-01
  7.270352e-01
  2.978504e-01
  9.040362e-02
  5.403138e-02
  6.494457e-02
  7.526383e-02
  6.795286e-02
  4.966986e-02
  3.681955e-02
  3.134399e-02
  3.008182e-02
  3.070089e-02
  3.213308e-02
  3.386162e-02
  3.523035e-02
  3.555240e-02
  3.456571e-02
  3.303001e-02
  3.432511e-02
  5.214016e-02
  1.469042e-01
  5.067712e-01
  8.493717e-01
  9.514583e-01
  9.571524e-01
  8.789179e-01
  5.867102e-01
  1.771446e-01
  6.555322e-02
  6.499094e-02
  1.670700e-01
  5.257492e-01
  8.139871e-01
  8.976772e-01
  8.775813e-01
  7.361717e-01
  3.817124e-01
  1.141938e-01
  4.180393e-02
  2.600129e-02
  2.262735e-02
  2.167575e-02
  2.056020e-02
  1.865729e-02
  1.706970e-02
  2.063003e-02
  2.007291e-02
  3.432497e-02
  8.402610e-02
  1.972626e-01
  3.505817e-01
  4.571965e-01
  4.097490e-01
  2.371737e-01
  9.138560e-02
  4.620766e-02
  6.395637e-02
  1.952059e-01
  5.683812e-01
  8.759933e-01
  9.648930e-01
  9.792295e-01
  9.547604e-01
  8.289941e-01
  4.474602e-01
  1.401067e-01
  6.841290e-02
  1.042503e-01
  1.962424e-01
  2.470937e-01
  2.061146e-01
  1.114478e-01
  5.498805e-02
  3.485644e-02
  2.827558e-02
  2.668105e-02
  2.799651e-02
  3.121672e-02
  3.425205e-02
  3.518669e-02
  3.369862e-02
  3.181204e-02
  3.491448e-02
  6.162951e-02
  2.003670e-01
  6.811177e-01
  9.399999e-01
  9.980794e-01
  9.999000e-01
  9.540299e-01
  7.375048e-01
  2.322157e-01
  7.800219e-02
  8.269249e-02