# vtk DataFile Version 2.0
time_10.vtk
ASCII
DATASET STRUCTURED_GRID
DIMENSIONS    64    64     1
POINTS    4096 float
  0.000000e+00   0.000000e+00   0.000000e+00
  0.000000e+00   1.000000e+00   0.000000e+00
  0.000000e+00   2.000000e+00   0.000000e+00
  0.000000e+00   3.000000e+00   0.000000e+00
  0.000000e+00   4.000000e+00   0.000000e+00
  0.000000e+00   5.000000e+00   0.000000e+00
  0.000000e+00   6.000000e+00   0.000000e+00
  0.000000e+00   7.000000e+00   0.000000e+00
  0.000000e+00   8.000000e+00   0.000000e+00
  0.000000e+00   9.000000e+00   0.000000e+00
  0.000000e+00   1.000000e+01   0.000000e+00
  0.000000e+00   1.100000e+01   0.000000e+00
  0.000000e+00   1.200000e+01   0.000000e+00
  0.000000e+00   1.300000e+01   0.000000e+00
  0.000000e+00   1.400000e+01   0.000000e+00
  0.000000e+00   1.500000e+01   0.000000e+00
  0.000000e+00   1.600000e+01   0.000000e+00
  0.000000e+00   1.700000e+01   0.000000e+00
  0.000000e+00   1.800000e+01   0.000000e+00
  0.000000e+00   1.900000e+01   0.000000e+00
  0.000000e+00   2.000000e+01   0.000000e+00
  0.000000e+00   2.100000e+01   0.000000e+00
  0.000000e+00   2.200000e+01   0.000000e+00
  0.000000e+00   2.300000e+01   0.000000e+00
  0.000000e+00   2.400000e+01   0.000000e+00
  0.000000e+00   2.500000e+01   0.000000e+00
  0.000000e+00   2.600000e+01   0.000000e+00
  0.000000e+00   2.700000e+01   0.000000e+00
  0.000000e+00   2.800000e+01   0.000000e+00
  0.000000e+00   2.900000e+01   0.000000e+00
  0.000000e+00   3.000000e+01   0.000000e+00
  0.000000e+00   3.100000e+01   0.000000e+00
  0.000000e+00   3.200000e+01   0.000000e+00
  0.000000e+00   3.300000e+01   0.000000e+00
  0.000000e+00   3.400000e+01   0.000000e+00
  0.000000e+00   3.500000e+01   0.000000e+00
  0.000000e+00   3.600000e+01   0.000000e+00
  0.000000e+00   3.700000e+01   0.000000e+00
  0.000000e+00   3.800000e+01   0.000000e+00
  0.000000e+00   3.900000e+01   0.000000e+00
  0.000000e+00   4.000000e+01   0.000000e+00
  0.000000e+00   4.100000e+01   0.000000e+00
  0.000000e+00   4.200000e+01   0.000000e+00
  0.000000e+00   4.300000e+01   0.000000e+00
  0.000000e+00   4.400000e+01   0.000000e+00
  0.000000e+00   4.500000e+01   0.000000e+00
  0.000000e+00   4.600000e+01   0.000000e+00
  0.000000e+00   4.700000e+01   0.000000e+00
  0.000000e+00   4.800000e+01   0.000000e+00
  0.000000e+00   4.900000e+01   0.000000e+00
  0.000000e+00   5.000000e+01   0.000000e+00
  0.000000e+00   5.100000e+01   0.000000e+00
  0.000000e+00   5.200000e+01   0.000000e+00
  0.000000e+00   5.300000e+01   0.000000e+00
  0.000000e+00   5.400000e+01   0.000000e+00
  0.000000e+00   5.500000e+01   0.000000e+00
  0.000000e+00   5.600000e+01   0.000000e+00
  0.000000e+00   5.700000e+01   0.000000e+00
  0.000000e+00   5.800000e+01   0.000000e+00
  0.000000e+00   5.900000e+01   0.000000e+00
  0.000000e+00   6.000000e+01   0.000000e+00
  0.000000e+00   6.100000e+01   0.000000e+00
  0.000000e+00   6.200000e+01   0.000000e+00
  0.000000e+00   6.300000e+01   0.000000e+00
  1.000000e+00   0.000000e+00   0.000000e+00
  1.000000e+00   1.000000e+00   0.000000e+00
  1.000000e+00   2.000000e+00   0.000000e+00
  1.000000e+00   3.000000e+00   0.000000e+00
  1.000000e+00   4.000000e+00   0.000000e+00
  1.000000e+00   5.000000e+00   0.000000e+00
  1.000000e+00   6.000000e+00   0.000000e+00
  1.000000e+00   7.000000e+00   0.000000e+00
  1.000000e+00   8.000000e+00   0.000000e+00
  1.000000e+00   9.000000e+00   0.000000e+00
  1.000000e+00   1.000000e+01   0.000000e+00
  1.000000e+00   1.100000e+01   0.000000e+00
  1.000000e+00   1.200000e+01   0.000000e+00
  1.000000e+00   1.300000e+01   0.000000e+00
  1.000000e+00   1.400000e+01   0.000000e+00
  1.000000e+00   1.500000e+01   0.000000e+00
  1.000000e+00   1.600000e+01   0.000000e+00
  1.000000e+00   1.700000e+01   0.000000e+00
  1.000000e+00   1.800000e+01   0.000000e+00
  1.000000e+00   1.900000e+01   0.000000e+00
  1.000000e+00   2.000000e+01   0.000000e+00
  1.000000e+00   2.100000e+01   0.000000e+00
  1.000000e+00   2.200000e+01   0.000000e+00
  1.000000e+00   2.300000e+01   0.000000e+00
  1.000000e+00   2.400000e+01   0.000000e+00
  1.000000e+00   2.500000e+01   0.000000e+00
  1.000000e+00   2.600000e+01   0.000000e+00
  1.000000e+00   2.700000e+01   0.000000e+00
  1.000000e+00   2.800000e+01   0.000000e+00
  1.000000e+00   2.900000e+01   0.000000e+00
  1.000000e+00   3.000000e+01   0.000000e+00
  1.000000e+00   3.100000e+01   0.000000e+00
  1.000000e+00   3.200000e+01   0.000000e+00
  1.000000e+00   3.300000e+01   0.000000e+00
  1.000000e+00   3.400000e+01   0.000000e+00
  1.000000e+00   3.500000e+01   0.000000e+00
  1.000000e+00   3.600000e+01   0.000000e+00
  1.000000e+00   3.700000e+01   0.000000e+00
  1.000000e+00   3.800000e+01   0.000000e+00
  1.000000e+00   3.900000e+01   0.000000e+00
  1.000000e+00   4.000000e+01   0.000000e+00
  1.000000e+00   4.100000e+01   0.000000e+00
  1.000000e+00   4.200000e+01   0.000000e+00
  1.000000e+00   4.300000e+01   0.000000e+00
  1.000000e+00   4.400000e+01   0.000000e+00
  1.000000e+00   4.500000e+01   0.000000e+00
  1.000000e+00   4.600000e+01   0.000000e+00
  1.000000e+00   4.700000e+01   0.000000e+00
  1.000000e+00   4.800000e+01   0.000000e+00
  1.000000e+00   4.900000e+01   0.000000e+00
  1.000000e+00   5.000000e+01   0.000000e+00
  1.000000e+00   5.100000e+01   0.000000e+00
  1.000000e+00   5.200000e+01   0.000000e+00
  1.000000e+00   5.300000e+01   0.000000e+00
  1.000000e+00   5.400000e+01   0.000000e+00
  1.000000e+00   5.500000e+01   0.000000e+00
  1.000000e+00   5.600000e+01   0.000000e+00
  1.000000e+00   5.700000e+01   0.000000e+00
  1.000000e+00   5.800000e+01   0.000000e+00
  1.000000e+00   5.900000e+01   0.000000e+00
  1.000000e+00   6.000000e+01   0.000000e+00
  1.000000e+00   6.100000e+01   0.000000e+00
  1.000000e+00   6.200000e+01   0.000000e+00
  1.000000e+00   6.300000e+01   0.000000e+00
  2.000000e+00   0.000000e+00   0.000000e+00
  2.000000e+00   1.000000e+00   0.000000e+00
  2.000000e+00   2.000000e+00   0.000000e+00
  2.000000e+00   3.000000e+00   0.000000e+00
  2.000000e+00   4.000000e+00   0.000000e+00
  2.000000e+00   5.000000e+00   0.000000e+00
  2.000000e+00   6.000000e+00   0.000000e+00
  2.000000e+00   7.000000e+00   0.000000e+00
  2.000000e+00   8.000000e+00   0.000000e+00
  2.000000e+00   9.000000e+00   0.000000e+00
  2.000000e+00   1.000000e+01   0.000000e+00
  2.000000e+00   1.100000e+01   0.000000e+00
  2.000000e+00   1.200000e+01   0.000000e+00
  2.000000e+00   1.300000e+01   0.000000e+00
  2.000000e+00   1.400000e+01   0.000000e+00
  2.000000e+00   1.500000e+01   0.000000e+00
  2.000000e+00   1.600000e+01   0.000000e+00
  2.000000e+00   1.700000e+01   0.000000e+00
  2.000000e+00   1.800000e+01   0.000000e+00
  2.000000e+00   1.900000e+01   0.000000e+00
  2.000000e+00   2.000000e+01   0.000000e+00
  2.000000e+00   2.100000e+01   0.000000e+00
  2.000000e+00   2.200000e+01   0.000000e+00
  2.000000e+00   2.300000e+01   0.000000e+00
  2.000000e+00   2.400000e+01   0.000000e+00
  2.000000e+00   2.500000e+01   0.000000e+00
  2.000000e+00   2.600000e+01   0.000000e+00
  2.000000e+00   2.700000e+01   0.000000e+00
  2.000000e+00   2.800000e+01   0.000000e+00
  2.000000e+00   2.900000e+01   0.000000e+00
  2.000000e+00   3.000000e+01   0.000000e+00
  2.000000e+00   3.100000e+01   0.000000e+00
  2.000000e+00   3.200000e+01   0.000000e+00
  2.000000e+00   3.300000e+01   0.000000e+00
  2.000000e+00   3.400000e+01   0.000000e+00
  2.000000e+00   3.500000e+01   0.000000e+00
  2.000000e+00   3.600000e+01   0.000000e+00
  2.000000e+00   3.700000e+01   0.000000e+00
  2.000000e+00   3.800000e+01   0.000000e+00
  2.000000e+00   3.900000e+01   0.000000e+00
  2.000000e+00   4.000000e+01   0.000000e+00
  2.000000e+00   4.100000e+01   0.000000e+00
  2.000000e+00   4.200000e+01   0.000000e+00
  2.000000e+00   4.300000e+01   0.000000e+00
  2.000000e+00   4.400000e+01   0.000000e+00
  2.000000e+00   4.500000e+01   0.000000e+00
  2.000000e+00   4.600000e+01   0.000000e+00
  2.000000e+00   4.700000e+01   0.000000e+00
  2.000000e+00   4.800000e+01   0.000000e+00
  2.000000e+00   4.900000e+01   0.000000e+00
  2.000000e+00   5.000000e+01   0.000000e+00
  2.000000e+00   5.100000e+01   0.000000e+00
  2.000000e+00   5.200000e+01   0.000000e+00
  2.000000e+00   5.300000e+01   0.000000e+00
  2.000000e+00   5.400000e+01   0.000000e+00
  2.000000e+00   5.500000e+01   0.000000e+00
  2.000000e+00   5.600000e+01   0.000000e+00
  2.000000e+00   5.700000e+01   0.000000e+00
  2.000000e+00   5.800000e+01   0.000000e+00
  2.000000e+00   5.900000e+01   0.000000e+00
  2.000000e+00   6.000000e+01   0.000000e+00
  2.000000e+00   6.100000e+01   0.000000e+00
  2.000000e+00   6.200000e+01   0.000000e+00
  2.000000e+00   6.300000e+01   0.000000e+00
  3.000000e+00   0.000000e+00   0.000000e+00
  3.000000e+00   1.000000e+00   0.000000e+00
  3.000000e+00   2.000000e+00   0.000000e+00
  3.000000e+00   3.000000e+00   0.000000e+00
  3.000000e+00   4.000000e+00   0.000000e+00
  3.000000e+00   5.000000e+00   0.000000e+00
  3.000000e+00   6.000000e+00   0.000000e+00
  3.000000e+00   7.000000e+00   0.000000e+00
  3.000000e+00   8.000000e+00   0.000000e+00
  3.000000e+00   9.000000e+00   0.000000e+00
  3.000000e+00   1.000000e+01   0.000000e+00
  3.000000e+00   1.100000e+01   0.000000e+00
  3.000000e+00   1.200000e+01   0.000000e+00
  3.000000e+00   1.300000e+01   0.000000e+00
  3.000000e+00   1.400000e+01   0.000000e+00
  3.000000e+00   1.500000e+01   0.000000e+00
  3.000000e+00   1.600000e+01   0.000000e+00
  3.000000e+00   1.700000e+01   0.000000e+00
  3.000000e+00   1.800000e+01   0.000000e+00
  3.000000e+00   1.900000e+01   0.000000e+00
  3.000000e+00   2.000000e+01   0.000000e+00
  3.000000e+00   2.100000e+01   0.000000e+00
  3.000000e+00   2.200000e+01   0.000000e+00
  3.000000e+00   2.300000e+01   0.000000e+00
  3.000000e+00   2.400000e+01   0.000000e+00
  3.000000e+00   2.500000e+01   0.000000e+00
  3.000000e+00   2.600000e+01   0.000000e+00
[...]
POINT_DATA  4096
SCALARS CON float 1
LOOKUP_TABLE default
  1.826316e-01
  3.645349e-01
  7.435902e-01
  8.973054e-01
  9.295708e-01
  9.072900e-01
  8.375993e-01
  7.162115e-01
  5.413784e-01
  3.864699e-01
  2.925481e-01
  2.046102e-01
  1.163566e-01
  7.312200e-02
  6.075857e-02
  6.879895e-02
  8.479272e-02
  9.278307e-02
  8.413621e-02
  6.318301e-02
  4.275821e-02
  3.414031e-02
  3.618196e-02
  4.553038e-02
  6.358041e-02
  9.743170e-02
  1.575013e-01
  2.829461e-01
  5.476165e-01
  8.115148e-01
  9.183707e-01
  9.449307e-01
  9.329031e-01
  8.730025e-01
  7.182930e-01
  4.200840e-01
  1.819641e-01
  8.675865e-02
  6.354124e-02
  5.907064e-02
  5.198033e-02
  4.320688e-02
  4.883021e-02
  1.024710e-01
  2.919630e-01
  5.676628e-01
  6.816517e-01
  5.848524e-01
  3.104178e-01
  1.119524e-01
  5.552167e-02
  5.638713e-02
  1.405178e-01
  5.039664e-01
  8.703494e-01
  9.630719e-01
  9.448422e-01
  7.636804e-01
  2.647053e-01
  9.001123e-02
  6.557797e-02
  8.645332e-02
  1.207134e-01
  1.445691e-01
  3.554296e-01
  3.088137e-01
  4.462196e-01
  6.085901e-01
  6.585578e-01
  5.788500e-01
  3.978187e-01
  2.390310e-01
  1.459672e-01
  1.005513e-01
  8.221200e-02
  6.871967e-02
  5.371203e-02
  4.486900e-02
  4.402764e-02
  5.133758e-02
  6.217099e-02
  6.577893e-02
  5.697797e-02
  4.277297e-02
  3.391541e-02
  3.609325e-02
  5.003939e-02
  6.941493e-02
  8.268246e-02
  8.322901e-02
  8.105015e-02
  1.142749e-01
  2.653759e-01
  6.161409e-01
  8.622447e-01
  9.488070e-01
  9.714710e-01
  9.640098e-01
  9.187095e-01
  7.839819e-01
  4.965081e-01
  2.205310e-01
  9.412056e-02
  4.938579e-02
  3.490926e-02
  3.528354e-02
  6.347026e-02
  2.019898e-01
  6.354034e-01
  8.849630e-01
  9.406516e-01
  8.878896e-01
  6.365915e-01
  1.979021e-01
  6.437259e-02
  5.566574e-02
  1.689188e-01
  6.335195e-01
  9.206566e-01
  9.803552e-01
  9.571685e-01
  7.813165e-01
  2.616496e-01
  9.011509e-02
  9.330237e-02
  2.011918e-01
  3.491852e-01
  4.089329e-01
  6.999014e-01
  3.433644e-01
  1.914039e-01
  1.812391e-01
  1.823571e-01
  1.538458e-01
  1.060436e-01
  6.977451e-02
  5.222920e-02
  4.686323e-02
  4.603212e-02
  4.448753e-02
  4.333756e-02
  4.912597e-02
  6.915190e-02
  1.089908e-01
  1.568106e-01
  1.727847e-01
  1.416009e-01
  9.462845e-02
  7.219656e-02
  8.920317e-02
  1.507515e-01
  2.269112e-01
  2.629850e-01
  2.253465e-01
  1.358466e-01
  8.180148e-02
  1.115597e-01
  2.765471e-01
  5.955319e-01
  8.200915e-01
  9.192650e-01
  9.557225e-01
  9.605090e-01
  9.295462e-01
  8.266852e-01
  5.989479e-01
  3.085266e-01
  1.427092e-01
  6.919508e-02
  4.850013e-02
  8.434411e-02
  2.893229e-01
  8.015425e-01
  9.694893e-01
  9.979150e-01
  9.672061e-01
  7.871151e-01
  2.631798e-01
  7.538279e-02
  5.796877e-02
  1.825477e-01
  6.802208e-01
  9.309986e-01
  9.760774e-01
  9.379169e-01
  7.187435e-01
  2.161600e-01
  8.880556e-02
  1.652524e-01
  5.115572e-01
  7.899476e-01
  8.364417e-01
  8.467621e-01
  4.022967e-01
  1.281304e-01
  6.690262e-02
  5.628351e-02
  5.364133e-02
  5.697994e-02
  6.988172e-02
  8.789665e-02
  1.032065e-01
  1.078452e-01
  1.046900e-01
  1.102349e-01
  1.467704e-01
  2.353760e-01
  3.919771e-01
  5.631523e-01
  6.146963e-01
  5.178633e-01
  3.527990e-01
  2.726896e-01
  3.364501e-01
  5.445224e-01
  7.273583e-01
  7.806779e-01
  6.907640e-01
  3.934595e-01
  1.336192e-01
  6.844819e-02
  9.501505e-02
  2.070691e-01
  4.199231e-01
  6.747075e-01
  8.310161e-01
  9.156485e-01
  9.488874e-01
  9.409521e-01
  8.821218e-01
  7.396109e-01
  4.803590e-01
  2.298096e-01
  1.042473e-01
  1.083785e-01
  3.205194e-01
  8.253577e-01
  9.766012e-01
  9.999000e-01
  9.692888e-01
  7.903093e-01
  2.636619e-01
  7.450633e-02
  5.564732e-02
  1.730241e-01
  6.541630e-01
  9.210192e-01
  9.646954e-01
  9.026613e-01
  5.977346e-01
  1.596737e-01
  8.435449e-02
  2.303804e-01
  7.313449e-01
  9.414943e-01
  9.631984e-01
  8.661640e-01
  4.051028e-01
  1.147497e-01
  4.846551e-02
  4.184315e-02
  6.409750e-02
  1.302532e-01
  2.328811e-01
  3.324040e-01
  4.027022e-01
  4.234600e-01
  4.145751e-01
  4.366491e-01
  5.434250e-01
  7.025729e-01
  8.275143e-01
  8.978313e-01
  9.123329e-01
  8.721191e-01
  7.850041e-01
  7.157834e-01
  7.573175e-01
  8.649195e-01
  9.387167e-01
  9.611406e-01
  9.178636e-01
  6.929473e-01
  2.248634e-01
  7.156955e-02
  4.556090e-02
  6.187260e-02
  1.146717e-01
  2.233000e-01
  4.251453e-01
  6.960966e-01
  8.709688e-01
  9.450461e-01
  9.600931e-01
  9.346263e-01
  8.437854e-01
  6.103934e-01
  2.586125e-01
  1.425570e-01
  2.790085e-01
  7.296271e-01
  9.241992e-01
  9.587691e-01
  9.031204e-01
  6.511572e-01
  1.983680e-01
  6.040923e-02
  4.752385e-02
  1.411370e-01
  5.521766e-01
  8.912220e-01
  9.503849e-01
  8.668755e-01
  4.777940e-01
  1.178397e-01
  7.312120e-02
  2.334364e-01
  7.567198e-01
  9.589604e-01
  9.794237e-01
  7.736192e-01
  3.162665e-01
  9.659232e-02
  4.998276e-02
  6.482818e-02
  1.662909e-01
  4.344693e-01
  7.129861e-01
  8.313489e-01
  8.680628e-01
  8.680568e-01
  8.501037e-01
  8.375723e-01
  8.557575e-01
  9.000571e-01
  9.411755e-01
  9.639652e-01
  9.620993e-01
  9.270044e-01
  8.505606e-01
  7.763609e-01
  8.063896e-01
  8.997557e-01
  9.631261e-01
  9.861955e-01
  9.588116e-01
  7.756740e-01
  2.646667e-01
  7.729808e-02
  3.639074e-02
  3.005185e-02
  3.659342e-02
  5.916026e-02
  1.205409e-01
  2.817209e-01
  6.035952e-01
  8.562077e-01
  9.535719e-01
  9.780982e-01
  9.589770e-01
  8.424829e-01
  4.620506e-01
  1.766681e-01
  1.803223e-01
  4.284562e-01
  6.923120e-01
  7.588278e-01
  6.430549e-01
  3.306235e-01
  1.057985e-01
  4.200118e-02
  3.723579e-02
  1.001958e-01
  3.989215e-01
  8.404664e-01
  9.367845e-01
  8.556670e-01
  4.521644e-01
  1.076596e-01
  5.862571e-02
  1.734158e-01
  6.057262e-01
  8.809565e-01
  9.206845e-01
  4.591978e-01
  1.752368e-01
  7.155311e-02
  5.801383e-02
  1.197338e-01
  3.901047e-01
  7.849971e-01
  9.357305e-01
  9.746813e-01
  9.790043e-01
  9.665432e-01
  9.375542e-01
  8.951266e-01
  8.622879e-01
  8.660322e-01
  8.944331e-01
  9.122093e-01
  8.904631e-01
  7.995501e-01
  6.207521e-01
  4.606713e-01
  5.115348e-01
  7.169955e-01
  8.697424e-01
  9.289174e-01
  8.936501e-01
  6.655630e-01
  2.169200e-01
  6.848609e-02
  3.452166e-02
  2.653954e-02
  2.542361e-02
  2.861151e-02
  4.173995e-02
  9.022428e-02
  2.500180e-01
  5.997984e-01
  8.591214e-01
  9.516236e-01
  9.629476e-01
  8.777496e-01
  5.213765e-01
  1.751393e-01
  1.015143e-01
  1.453262e-01
  2.238702e-01
  2.531525e-01
  2.050171e-01
  1.135221e-01
  5.416129e-02
  3.214993e-02
  3.031629e-02
  6.891442e-02
  2.731319e-01
  7.730186e-01
  9.249033e-01
  8.763495e-01
  5.427008e-01
  1.356988e-01
  4.947677e-02
  9.002787e-02
  2.833452e-01
  5.711253e-01
  6.494406e-01
  1.512458e-01
  8.193627e-02
  5.501265e-02
  6.794760e-02
  1.811973e-01
  6.046691e-01
  9.128960e-01
  9.885608e-01
  9.994809e-01
  9.889243e-01
  9.536109e-01
  8.675865e-01
  7.197810e-01
  5.782694e-01
  5.367126e-01
  5.846247e-01
  6.198828e-01
  5.542676e-01
  3.747222e-01
  2.072566e-01
  1.285623e-01
  1.476593e-01
  2.755405e-01
  5.011843e-01
  6.496235e-01
  5.944756e-01
  3.353113e-01
  1.181691e-01
  5.012129e-02
  3.333839e-02
  3.129308e-02
  3.532920e-02
  4.127279e-02
  4.513644e-02
  5.310264e-02
  9.761244e-02
  2.543971e-01
  5.631561e-01
  7.786287e-01
  8.291396e-01
  7.196843e-01
  3.619869e-01
  1.266863e-01
  6.571503e-02
  6.225139e-02
  7.562176e-02
  8.536507e-02
  8.208647e-02
  6.749618e-02
  5.143965e-02
  3.791842e-02
  3.130438e-02
  5.184648e-02
  1.935834e-01
  6.792736e-01
  9.091340e-01
  9.097719e-01
  6.891209e-01
  2.116376e-01
  5.814917e-02
  4.627433e-02
  9.311271e-02
  1.720229e-01
  2.027647e-01
  6.704046e-02
  5.488038e-02
  5.051101e-02
  7.069449e-02
  1.909642e-01
  6.223676e-01
  9.136311e-01
  9.812884e-01
  9.828540e-01
  9.466806e-01
  8.332226e-01
  5.687253e-01
  2.724326e-01
  1.483331e-01
  1.239400e-01
  1.429999e-01
  1.660874e-01
  1.623237e-01
  1.292841e-01
  9.368005e-02
  7.032475e-02
  6.533749e-02
  8.877836e-02
  1.446233e-01
  1.914546e-01
  1.771165e-01
  1.104075e-01
  5.790963e-02
  3.862306e-02
  3.712033e-02
  4.982881e-02
  7.972438e-02
  1.174656e-01
  1.337098e-01
  1.157142e-01
  9.378189e-02
  1.093857e-01
  1.892315e-01
  2.949557e-01
  3.455188e-01
  2.818765e-01
  1.493691e-01
  7.288910e-02
  4.756648e-02
  4.336160e-02
  5.165200e-02
  7.448332e-02
  1.080708e-01
  1.310644e-01
  1.223314e-01
  8.852354e-02
  5.555764e-02
  5.058459e-02
  1.423082e-01
  5.478525e-01
  8.832304e-01
  9.358184e-01
  8.127318e-01
  3.650172e-01
  9.406161e-02
  3.808103e-02
  4.125660e-02
  6.012580e-02
  7.218589e-02
  7.711408e-02
  7.245918e-02
  6.145978e-02
  6.675356e-02
  1.388155e-01
  4.196917e-01
  7.628037e-01
  8.756015e-01
  8.687672e-01
  7.609516e-01
  4.904983e-01
  2.043149e-01
  7.436883e-02
  3.479152e-02
  2.964019e-02
  3.936422e-02
  5.846462e-02
  9.263346e-02
  1.505526e-01
  1.967347e-01
  1.890779e-01
  1.361755e-01
  8.385070e-02
  6.587206e-02
  6.610014e-02
  6.250276e-02
  5.158024e-02
  4.350617e-02
  4.533272e-02
  6.489893e-02
  1.246287e-01
  2.542543e-01
  4.144939e-01
  4.876255e-01
  4.159913e-01
  2.749085e-01
  1.583621e-01
  1.040961e-01
  9.937939e-02
  1.049692e-01
  9.198769e-02
  6.487906e-02
  4.611139e-02
  3.861326e-02
  4.279017e-02
  7.396083e-02
  1.725059e-01
  3.300006e-01
  4.478490e-01
  4.378664e-01
  3.152208e-01
  1.703145e-01
  8.350263e-02
  1.181928e-01
  4.171407e-01
  8.498868e-01
  9.509149e-01
  8.993128e-01
  5.947410e-01
  1.651133e-01
  5.081127e-02
  3.742144e-02
  5.005440e-02
  6.785214e-02
  2.331657e-01
  2.044912e-01
  1.283346e-01
  7.699507e-02
  8.398809e-02
  1.693225e-01
  3.325937e-01
  4.524827e-01
  4.330157e-01
  2.997845e-01
  1.550006e-01
  6.509834e-02
  2.877870e-02
  1.800103e-02
  1.851066e-02
  2.888568e-02
  6.493084e-02
  1.867804e-01
  4.483585e-01
  6.517266e-01
  6.568789e-01
  4.705436e-01
  2.142290e-01
  8.559061e-02
  5.240903e-02
  5.069833e-02
  6.133862e-02
  7.937993e-02
  1.129340e-01
  1.909426e-01
  3.747691e-01
  6.614811e-01
  8.282043e-01
  8.776807e-01
  8.483479e-01
  7.267099e-01
  4.602454e-01
  2.018291e-01
  8.600450e-02
  5.375362e-02
  4.476093e-02
  3.867221e-02
  3.427404e-02
  3.493169e-02
  5.543601e-02
  1.568570e-01
  4.761182e-01
  7.759697e-01
  8.774968e-01
  8.779387e-01
  7.871732e-01
  5.215207e-01
  1.961596e-01
  1.277719e-01
  3.270201e-01
  8.003881e-01
  9.488936e-01
  9.403373e-01
  7.487013e-01
  2.569254e-01
  8.914343e-02
  8.078084e-02
  1.309002e-01
  1.985738e-01
  7.433002e-01
  6.549063e-01
  3.745569e-01
  1.350421e-01
  6.945337e-02
  7.366573e-02
  1.078939e-01
  1.393610e-01
  1.368873e-01
  1.020183e-01
  6.282217e-02
  3.704777e-02
  2.496920e-02
  2.077862e-02
  2.262427e-02
  3.914420e-02
  1.188256e-01
  4.240860e-01
  7.976108e-01
  9.229899e-01
  9.283314e-01
  8.242579e-01
  4.902980e-01
  1.607082e-01
  8.059804e-02
  1.021459e-01
  1.806028e-01
  2.784574e-01
  4.002050e-01
  5.629473e-01
  7.253922e-01
  8.501491e-01
  9.205845e-01
  9.548290e-01
  9.593984e-01
  9.259816e-01
  8.043247e-01
  4.980530e-01
  1.779419e-01
  6.253033e-02
  3.574515e-02
  2.982551e-02
  2.863284e-02
  3.551502e-02
  8.292146e-02
  3.000477e-01
  7.563396e-01
  9.399272e-01
  9.843373e-01
  9.867238e-01
  9.525976e-01
  7.976974e-01
  3.584775e-01
  1.534735e-01
  2.472888e-01
  6.700176e-01
  8.955114e-01
  9.235635e-01
  7.815244e-01
  3.508805e-01
  1.953372e-01
  2.765304e-01
  4.841910e-01
  6.804841e-01
  9.549627e-01
  9.090443e-01
  6.872389e-01
  2.287881e-01
  7.730107e-02
  5.112037e-02
  5.990636e-02
  8.206245e-02
  9.907836e-02
  9.280911e-02
  6.759976e-02
  4.386809e-02
  3.160169e-02
  2.661601e-02
  2.846029e-02
  5.338438e-02
  1.865861e-01
  6.494841e-01
  9.172444e-01
  9.806389e-01
  9.815760e-01
  9.191050e-01
  6.570828e-01
  2.361626e-01
  1.519723e-01
  2.993748e-01
  5.879436e-01
  7.648749e-01
  8.280723e-01
  8.368546e-01
  7.999430e-01
  7.801778e-01
  8.332387e-01
  9.170530e-01
  9.644995e-01
  9.728828e-01
  9.381273e-01
  7.876525e-01
  3.907543e-01
  1.109127e-01
  4.118492e-02
  2.762380e-02
  2.697554e-02
  4.174255e-02
  1.290937e-01
  4.876922e-01
  8.733037e-01
  9.772495e-01
  9.990316e-01
  9.999000e-01
  9.811678e-01
  8.675210e-01
  4.389626e-01
  1.554629e-01
  1.512787e-01
  3.733637e-01
  6.685169e-01
  7.547563e-01
  6.381112e-01
  3.812142e-01
  4.153148e-01
  6.869927e-01
  8.609175e-01
  9.366066e-01
  9.989593e-01
  9.676996e-01
  7.948045e-01
  2.754591e-01
  8.241990e-02
  5.185522e-02
  7.991681e-02
  1.604257e-01
  2.442736e-01
  2.481035e-01
  1.645198e-01
  7.862621e-02
  4.407489e-02
  3.304962e-02
  3.455261e-02
  6.815413e-02
  2.411629e-01
  7.373206e-01
  9.295120e-01
  9.629550e-01
  9.475115e-01
  8.607040e-01
  5.765018e-01
  2.375288e-01
  2.469439e-01
  6.060258e-01
  8.707677e-01
  9.456507e-01
  9.387874e-01
  8.430213e-01
  5.803824e-01
  3.840131e-01
  4.652283e-01
  7.455676e-01
  9.249633e-01
  9.772790e-01
  9.785558e-01
  9.166616e-01
  6.517874e-01
  1.905162e-01
  5.556338e-02
  2.981556e-02
  3.005130e-02
  5.720535e-02
  1.958675e-01
  6.540987e-01
  9.150287e-01
  9.735871e-01
  9.816495e-01
  9.757466e-01
  9.435307e-01
  7.956532e-01
  3.588061e-01
  1.218768e-01
  8.383582e-02
  1.357637e-01
  2.338976e-01
  2.874325e-01
  2.658229e-01
  2.681189e-01
  5.301104e-01
  8.577156e-01
  9.646349e-01
  9.944396e-01
  9.989341e-01
  9.572211e-01
  7.573205e-01
  2.465363e-01
  7.720841e-02
  7.397307e-02
  1.945572e-01
  4.874810e-01
  7.146822e-01
  7.189589e-01
  4.813143e-01
  1.677411e-01
  6.506509e-02
  4.128065e-02
  4.584523e-02
  9.927886e-02
  3.166452e-01
  7.476514e-01
  8.640984e-01
  8.356562e-01
  7.517107e-01
  5.651215e-01
  2.860499e-01
  1.552394e-01
  2.633050e-01
  7.129099e-01
  9.341732e-01
  9.742707e-01
  9.265970e-01
  7.055021e-01
  2.706792e-01
  1.066469e-01
  1.457647e-01
  4.334403e-01
  8.438073e-01
  9.681136e-01
  9.912238e-01
  9.625288e-01
  7.851878e-01
  2.601473e-01
  7.125569e-02
  3.574427e-02
  4.163602e-02
  9.307021e-02
  2.942782e-01
  7.352033e-01
  8.960137e-01
  9.094600e-01
  8.804930e-01
  8.363083e-01
  7.451863e-01
  5.040398e-01
  1.938912e-01
  7.909296e-02
  5.610180e-02
  6.437085e-02
  8.461656e-02
  9.843154e-02
  1.065428e-01
  1.704537e-01
  4.740023e-01
  8.648509e-01
  9.765060e-01
  9.999000e-01
  9.578895e-01
  8.662652e-01
  5.583849e-01
  1.649927e-01
  7.145794e-02
  1.383915e-01
  4.479682e-01
  8.109680e-01
  9.348960e-01
  9.275022e-01
  7.438542e-01
  2.632440e-01
  8.554531e-02
  5.246752e-02
  7.592033e-02
  1.964410e-01
  4.904745e-01
  7.328219e-01
  6.442404e-01
  4.145930e-01
  2.578772e-01
  1.635300e-01
  9.620304e-02
  8.605822e-02
  1.957131e-01
  5.938013e-01
  8.680145e-01
  9.156652e-01
  8.069524e-01
  4.429850e-01
  1.221979e-01
  3.626901e-02
  5.538721e-02
  2.384378e-01
  7.390595e-01
  9.485641e-01
  9.925275e-01
  9.732753e-01
  8.171432e-01
  2.887309e-01
  8.120752e-02
  4.729271e-02
  7.527331e-02
  1.856855e-01
  4.521946e-01
  7.214312e-01
  7.363754e-01
  6.285085e-01
  4.711490e-01
  3.408648e-01
  2.474869e-01
  1.566773e-01
  8.348601e-02
  5.721556e-02
  5.218898e-02
  5.271536e-02
  5.429701e-02
  5.575030e-02
  6.191790e-02
  1.070525e-01
  3.166116e-01
  7.521040e-01
  9.297398e-01
  9.700720e-01
  7.630830e-01
  5.648339e-01
  2.474476e-01
  8.720638e-02
  8.805613e-02
  2.766016e-01
  7.198970e-01
  9.325960e-01
  9.831874e-01
  9.611066e-01
  7.864245e-01
  2.771800e-01
  8.869893e-02
  6.724012e-02
  1.471803e-01
  4.390067e-01
  7.369235e-01
  7.431115e-01
  3.857479e-01
  1.416470e-01
  6.866103e-02
  4.819765e-02
  4.207928e-02
  5.201915e-02
  1.067419e-01
  2.931473e-01
  5.646808e-01
  6.367413e-01
  4.585489e-01
  1.877314e-01
  5.769738e-02
  2.300802e-02
  3.559604e-02
  1.472638e-01
  5.614469e-01
  8.860192e-01
  9.668712e-01
  9.442938e-01
  7.554057e-01
  2.557981e-01
  8.214517e-02
  7.454974e-02
  1.736080e-01
  4.121823e-01
  6.315398e-01
  5.782269e-01
  3.426547e-01
  1.873624e-01
  1.135977e-01
  8.036075e-02
  6.714156e-02
  6.371925e-02
  7.031878e-02
  8.305205e-02
  8.800106e-02
  7.758597e-02
  6.059733e-02
  5.103281e-02
  4.973201e-02
  6.821151e-02
  1.607001e-01
  4.390745e-01
  7.149518e-01
  8.026624e-01
  2.529610e-01
  1.682820e-01
  8.503426e-02
  6.673544e-02
  1.685380e-01
  5.296921e-01
  8.702906e-01
  9.701017e-01
  9.817185e-01
  9.244014e-01
  6.702216e-01
  2.076220e-01
  7.274935e-02
  8.209402e-02
  2.491240e-01
  7.054397e-01
  8.799550e-01
  7.763988e-01
  2.892245e-01
  7.576049e-02
  3.172977e-02
  2.826462e-02
  3.432074e-02
  4.480493e-02
  6.504359e-02
  1.125524e-01
  1.814549e-01
  1.999488e-01
  1.436466e-01
  7.212800e-02
  3.500697e-02
  2.303862e-02
  3.018599e-02
  8.456188e-02
  2.990218e-01
  6.724375e-01
  8.221157e-01
  7.813711e-01
  5.131866e-01
  1.681836e-01
  8.161021e-02
  1.458729e-01
  4.126750e-01
  7.204016e-01
  7.458441e-01
  4.118911e-01
  1.417938e-01
  5.475984e-02
  3.128367e-02
  3.091994e-02
  5.019610e-02
  1.003660e-01
  1.857802e-01
  2.606843e-01
  2.743814e-01
  2.061459e-01
  1.080390e-01
  6.316166e-02
  4.929735e-02
  5.063811e-02
  7.450393e-02
  1.451141e-01
  2.381307e-01
  2.825015e-01
  7.466936e-02
  5.768288e-02
  5.298186e-02
  1.108731e-01
  3.706557e-01
  7.813428e-01
  9.450818e-01
  9.780919e-01
  9.495891e-01
  7.980699e-01
  3.928026e-01
  1.102183e-01
  4.941189e-02
  8.916213e-02
  3.273257e-01
  8.159489e-01
  9.277697e-01
  7.959416e-01
  2.697356e-01
  6.725429e-02
  3.120925e-02
  3.667000e-02
  5.679501e-02
  7.726382e-02
  8.706921e-02
  8.634783e-02
  8.225260e-02
  7.445736e-02
  5.856100e-02
  4.189855e-02
  3.238383e-02
  2.929626e-02
  3.262640e-02
  5.178350e-02
  1.166461e-01
  2.488637e-01
  3.444853e-01
  3.122174e-01
  1.849237e-01
  8.870778e-02
  1.032751e-01
  3.024181e-01
  7.063627e-01
  8.711445e-01
  7.691136e-01
  2.962174e-01
  7.817341e-02
  2.836511e-02
  2.502117e-02
  5.173433e-02
  1.398503e-01
  3.414927e-01
  6.220769e-01
  7.709063e-01
  7.744731e-01
  5.971560e-01
  2.430417e-01
  9.419497e-02
  5.610132e-02
  4.882833e-02
  5.265121e-02
  6.489766e-02
  7.944680e-02
  8.415084e-02
  4.168983e-02
  4.163956e-02
  7.106133e-02
  2.242205e-01
  6.693713e-01
  9.170265e-01
  9.763683e-01
  9.643875e-01
  8.594585e-01
  5.248752e-01
  1.653573e-01
  4.652345e-02
  3.141798e-02
  8.983663e-02
  3.735346e-01
  8.458981e-01
  9.336181e-01
  7.851016e-01
  2.548105e-01
  6.835070e-02
  4.535578e-02
  8.468495e-02
  1.741452e-01
  2.528731e-01
  2.638812e-01
  1.994196e-01
  1.091404e-01
  6.104130e-02
  4.493121e-02
  4.227298e-02
  4.844073e-02
  5.736847e-02
  6.187192e-02
  6.317396e-02
  7.047661e-02
  9.194887e-02
  1.091609e-01
  9.936653e-02
  7.271413e-02
  7.168843e-02
  1.796323e-01
  5.590128e-01
  8.643524e-01
  9.145611e-01
  7.407659e-01
  2.280594e-01
  5.736135e-02
  2.987453e-02
  5.236548e-02
  1.597073e-01
  4.375686e-01
  7.584470e-01
  9.094480e-01
  9.592572e-01
  9.496581e-01
  8.196015e-01
  3.776753e-01
  1.262259e-01
  6.701327e-02
  6.185181e-02
  6.939914e-02
  7.116512e-02
  6.244670e-02
  5.023250e-02
  4.788648e-02
  4.883953e-02
  1.063373e-01
  3.620155e-01
  8.312877e-01
  9.683757e-01
  9.788390e-01
  9.113946e-01
  6.565738e-01
  2.348386e-01
  5.947568e-02
  1.771864e-02
  2.210609e-02
  9.527161e-02
  4.239267e-01
  8.540978e-01
  9.173378e-01
  7.270359e-01
  2.198396e-01
  7.031882e-02
  8.623875e-02
  2.553324e-01
  5.769345e-01
  7.595064e-01
  7.684700e-01
  6.071301e-01
  2.829896e-01
  1.007271e-01
  5.892527e-02
  7.316784e-02
  1.303773e-01
  1.952304e-01
  2.174785e-01
  1.894354e-01
  1.308329e-01
  8.323849e-02
  6.102245e-02
  5.142172e-02
  5.163676e-02
  9.828832e-02
  3.308028e-01
  7.742492e-01
  9.329730e-01
  9.174286e-01
  6.787127e-01
  1.844446e-01
  5.203164e-02
  4.679357e-02
  1.261940e-01