# vtk DataFile Version 2.0
time_10.vtk
ASCII
DATASET STRUCTURED_GRID
DIMENSIONS    64    64     1
POINTS    4096 float
  0.000000e+00   0.000000e+00   0.000000e+00
  0.000000e+00   1.000000e+00   0.000000e+00
  0.000000e+00   2.000000e+00   0.000000e+00
  0.000000e+00   3.000000e+00   0.000000e+00
  0.000000e+00   4.000000e+00   0.000000e+00
  0.000000e+00   5.000000e+00   0.000000e+00
  0.000000e+00   6.000000e+00   0.000000e+00
  0.000000e+00   7.000000e+00   0.000000e+00
  0.000000e+00   8.000000e+00   0.000000e+00
  0.000000e+00   9.000000e+00   0.000000e+00
  0.000000e+00   1.000000e+01   0.000000e+00
  0.000000e+00   1.100000e+01   0.000000e+00
  0.000000e+00   1.200000e+01   0.000000e+00
  0.000000e+00   1.300000e+01   0.000000e+00
  0.000000e+00   1.400000e+01   0.000000e+00
  0.000000e+00   1.500000e+01   0.000000e+00
  0.000000e+00   1.600000e+01   0.000000e+00
  0.000000e+00   1.700000e+01   0.000000e+00
  0.000000e+00   1.800000e+01   0.000000e+00
  0.000000e+00   1.900000e+01   0.000000e+00
  0.000000e+00   2.000000e+01   0.000000e+00
  0.000000e+00   2.100000e+01   0.000000e+00
  0.000000e+00   2.200000e+01   0.000000e+00
  0.000000e+00   2.300000e+01   0.000000e+00
  0.000000e+00   2.400000e+01   0.000000e+00
  0.000000e+00   2.500000e+01   0.000000e+00
  0.000000e+00   2.600000e+01   0.000000e+00
  0.000000e+00   2.700000e+01   0.000000e+00
  0.000000e+00   2.800000e+01   0.000000e+00
  0.000000e+00   2.900000e+01   0.000000e+00
  0.000000e+00   3.000000e+01   0.000000e+00
  0.000000e+00   3.100000e+01   0.000000e+00
  0.000000e+00   3.200000e+01   0.000000e+00
  0.000000e+00   3.300000e+01   0.000000e+00
  0.000000e+00   3.400000e+01   0.000000e+00
  0.000000e+00   3.500000e+01   0.000000e+00
  0.000000e+00   3.600000e+01   0.000000e+00
  0.000000e+00   3.700000e+01   0.000000e+00
  0.000000e+00   3.800000e+01   0.000000e+00
  0.000000e+00   3.900000e+01   0.000000e+00
  0.000000e+00   4.000000e+01   0.000000e+00
  0.000000e+00   4.100000e+01   0.000000e+00
  0.000000e+00   4.200000e+01   0.000000e+00
  0.000000e+00   4.300000e+01   0.000000e+00
  0.000000e+00   4.400000e+01   0.000000e+00
  0.000000e+00   4.500000e+01   0.000000e+00
  0.000000e+00   4.600000e+01   0.000000e+00
  0.000000e+00   4.700000e+01   0.000000e+00
  0.000000e+00   4.800000e+01   0.000000e+00
  0.000000e+00   4.900000e+01   0.000000e+00
  0.000000e+00   5.000000e+01   0.000000e+00
  0.000000e+00   5.100000e+01   0.000000e+00
  0.000000e+00   5.200000e+01   0.000000e+00
  0.000000e+00   5.300000e+01   0.000000e+00
  0.000000e+00   5.400000e+01   0.000000e+00
  0.000000e+00   5.500000e+01   0.000000e+00
  0.000000e+00   5.600000e+01   0.000000e+00
  0.000000e+00   5.700000e+01   0.000000e+00
  0.000000e+00   5.800000e+01   0.000000e+00
  0.000000e+00   5.900000e+01   0.000000e+00
  0.000000e+00   6.000000e+01   0.000000e+00
  0.000000e+00   6.100000e+01   0.000000e+00
  0.000000e+00   6.200000e+01   0.000000e+00
  0.000000e+00   6.300000e+01   0.000000e+00
  1.000000e+00   0.000000e+00   0.000000e+00
  1.000000e+00   1.000000e+00   0.000000e+00
  1.000000e+00   2.000000e+00   0.000000e+00
  1.000000e+00   3.000000e+00   0.000000e+00
  1.000000e+00   4.000000e+00   0.000000e+00
  1.000000e+00   5.000000e+00   0.000000e+00
  1.000000e+00   6.000000e+00   0.000000e+00
  1.000000e+00   7.000000e+00   0.000000e+00
  1.000000e+00   8.000000e+00   0.000000e+00
  1.000000e+00   9.000000e+00   0.000000e+00
  1.000000e+00   1.000000e+01   0.000000e+00
  1.000000e+00   1.100000e+01   0.000000e+00
  1.000000e+00   1.200000e+01   0.000000e+00
  1.000000e+00   1.300000e+01   0.000000e+00
  1.000000e+00   1.400000e+01   0.000000e+00
  1.000000e+00   1.500000e+01   0.000000e+00
  1.000000e+00   1.600000e+01   0.000000e+00
  1.000000e+00   1.700000e+01   0.000000e+00
  1.000000e+00   1.800000e+01   0.000000e+00
  1.000000e+00   1.900000e+01   0.000000e+00
  1.000000e+00   2.000000e+01   0.000000e+00
  1.000000e+00   2.100000e+01   0.000000e+00
  1.000000e+00   2.200000e+01   0.000000e+00
  1.000000e+00   2.300000e+01   0.000000e+00
  1.000000e+00   2.400000e+01   0.000000e+00
  1.000000e+00   2.500000e+01   0.000000e+00
  1.000000e+00   2.600000e+01   0.000000e+00
  1.000000e+00   2.700000e+01   0.000000e+00
  1.000000e+00   2.800000e+01   0.000000e+00
  1.000000e+00   2.900000e+01   0.000000e+00
  1.000000e+00   3.000000e+01   0.000000e+00
  1.000000e+00   3.100000e+01   0.000000e+00
  1.000000e+00   3.200000e+01   0.000000e+00
  1.000000e+00   3.300000e+01   0.000000e+00
  1.000000e+00   3.400000e+01   0.000000e+00
  1.000000e+00   3.500000e+01   0.000000e+00
  1.000000e+00   3.600000e+01   0.000000e+00
  1.000000e+00   3.700000e+01   0.000000e+00
  1.000000e+00   3.800000e+01   0.000000e+00
  1.000000e+00   3.900000e+01   0.000000e+00
  1.000000e+00   4.000000e+01   0.000000e+00
  1.000000e+00   4.100000e+01   0.000000e+00
  1.000000e+00   4.200000e+01   0.000000e+00
  1.000000e+00   4.300000e+01   0.000000e+00
  1.000000e+00   4.400000e+01   0.000000e+00
  1.000000e+00   4.500000e+01   0.000000e+00
  1.000000e+00   4.600000e+01   0.000000e+00
  1.000000e+00   4.700000e+01   0.000000e+00
  1.000000e+00   4.800000e+01   0.000000e+00
  1.000000e+00   4.900000e+01   0.000000e+00
  1.000000e+00   5.000000e+01   0.000000e+00
  1.000000e+00   5.100000e+01   0.000000e+00
  1.000000e+00   5.200000e+01   0.000000e+00
  1.000000e+00   5.300000e+01   0.000000e+00
  1.000000e+00   5.400000e+01   0.000000e+00
  1.000000e+00   5.500000e+01   0.000000e+00
  1.000000e+00   5.600000e+01   0.000000e+00
  1.000000e+00   5.700000e+01   0.000000e+00
  1.000000e+00   5.800000e+01   0.000000e+00
  1.000000e+00   5.900000e+01   0.000000e+00
  1.000000e+00   6.000000e+01   0.000000e+00
  1.000000e+00   6.100000e+01   0.000000e+00
  1.000000e+00   6.200000e+01   0.000000e+00
  1.000000e+00   6.300000e+01   0.000000e+00
  2.000000e+00   0.000000e+00   0.000000e+00
  2.000000e+00   1.000000e+00   0.000000e+00
  2.000000e+00   2.000000e+00   0.000000e+00
  2.000000e+00   3.000000e+00   0.000000e+00
  2.000000e+00   4.000000e+00   0.000000e+00
  2.000000e+00   5.000000e+00   0.000000e+00
  2.000000e+00   6.000000e+00   0.000000e+00
  2.000000e+00   7.000000e+00   0.000000e+00
  2.000000e+00   8.000000e+00   0.000000e+00
  2.000000e+00   9.000000e+00   0.000000e+00
  2.000000e+00   1.000000e+01   0.000000e+00
  2.000000e+00   1.100000e+01   0.000000e+00
  2.000000e+00   1.200000e+01   0.000000e+00
  2.000000e+00   1.300000e+01   0.000000e+00
  2.000000e+00   1.400000e+01   0.000000e+00
  2.000000e+00   1.500000e+01   0.000000e+00
  2.000000e+00   1.600000e+01   0.000000e+00
  2.000000e+00   1.700000e+01   0.000000e+00
  2.000000e+00   1.800000e+01   0.000000e+00
  2.000000e+00   1.900000e+01   0.000000e+00
  2.000000e+00   2.000000e+01   0.000000e+00
  2.000000e+00   2.100000e+01   0.000000e+00
  2.000000e+00   2.200000e+01   0.000000e+00
  2.000000e+00   2.300000e+01   0.000000e+00
  2.000000e+00   2.400000e+01   0.000000e+00
  2.000000e+00   2.500000e+01   0.000000e+00
  2.000000e+00   2.600000e+01   0.000000e+00
  2.000000e+00   2.700000e+01   0.000000e+00
  2.000000e+00   2.800000e+01   0.000000e+00
  2.000000e+00   2.900000e+01   0.000000e+00
  2.000000e+00   3.000000e+01   0.000000e+00
  2.000000e+00   3.100000e+01   0.000000e+00
  2.000000e+00   3.200000e+01   0.000000e+00
  2.000000e+00   3.300000e+01   0.000000e+00
  2.000000e+00   3.400000e+01   0.000000e+00
  2.000000e+00   3.500000e+01   0.000000e+00
  2.000000e+00   3.600000e+01   0.000000e+00
  2.000000e+00   3.700000e+01   0.000000e+00
  2.000000e+00   3.800000e+01   0.000000e+00
  2.000000e+00   3.900000e+01   0.000000e+00
  2.000000e+00   4.000000e+01   0.000000e+00
  2.000000e+00   4.100000e+01   0.000000e+00
  2.000000e+00   4.200000e+01   0.000000e+00
  2.000000e+00   4.300000e+01   0.000000e+00
  2.000000e+00   4.400000e+01   0.000000e+00
  2.000000e+00   4.500000e+01   0.000000e+00
  2.000000e+00   4.600000e+01   0.000000e+00
  2.000000e+00   4.700000e+01   0.000000e+00
  2.000000e+00   4.800000e+01   0.000000e+00
  2.000000e+00   4.900000e+01   0.000000e+00
  2.000000e+00   5.000000e+01   0.000000e+00
  2.000000e+00   5.100000e+01   0.000000e+00
  2.000000e+00   5.200000e+01   0.000000e+00
  2.000000e+00   5.300000e+01   0.000000e+00
  2.000000e+00   5.400000e+01   0.000000e+00
  2.000000e+00   5.500000e+01   0.000000e+00
  2.000000e+00   5.600000e+01   0.000000e+00
  2.000000e+00   5.700000e+01   0.000000e+00
  2.000000e+00   5.800000e+01   0.000000e+00
  2.000000e+00   5.900000e+01   0.000000e+00
  2.000000e+00   6.000000e+01   0.000000e+00
  2.000000e+00   6.100000e+01   0.000000e+00
  2.000000e+00   6.200000e+01   0.000000e+00
  2.000000e+00   6.300000e+01   0.000000e+00
  3.000000e+00   0.000000e+00   0.000000e+00
  3.000000e+00   1.000000e+00   0.000000e+00
  3.000000e+00   2.000000e+00   0.000000e+00
  3.000000e+00   3.000000e+00   0.000000e+00
  3.000000e+00   4.000000e+00   0.000000e+00
  3.000000e+00   5.000000e+00   0.000000e+00
  3.000000e+00   6.000000e+00   0.000000e+00
  3.000000e+00   7.000000e+00   0.000000e+00
  3.000000e+00   8.000000e+00   0.000000e+00
  3.000000e+00   9.000000e+00   0.000000e+00
  3.000000e+00   1.000000e+01   0.000000e+00
  3.000000e+00   1.100000e+01   0.000000e+00
  3.000000e+00   1.200000e+01   0.000000e+00
  3.000000e+00   1.300000e+01   0.000000e+00
  3.000000e+00   1.400000e+01   0.000000e+00
  3.000000e+00   1.500000e+01   0.000000e+00
  3.000000e+00   1.600000e+01   0.000000e+00
  3.000000e+00   1.700000e+01   0.000000e+00
  3.000000e+00   1.800000e+01   0.000000e+00
  3.000000e+00   1.900000e+01   0.000000e+00
  3.000000e+00   2.000000e+01   0.000000e+00
  3.000000e+00   2.100000e+01   0.000000e+00
  3.000000e+00   2.200000e+01   0.000000e+00
  3.000000e+00   2.300000e+01   0.000000e+00
  3.000000e+00   2.400000e+01   0.000000e+00
  3.000000e+00   2.500000e+01   0.000000e+00
  3.000000e+00   2.600000e+01   0.000000e+00
[...]
POINT_DATA  4096
SCALARS CON float 1
LOOKUP_TABLE default
  1.053001e-01
  3.754407e-01
  8.472557e-01
  9.782343e-01
  9.999000e-01
  9.957003e-01
  9.394670e-01
  6.848013e-01
  1.995984e-01
  5.924936e-02
  3.210009e-02
  2.835249e-02
  2.920798e-02
  3.106894e-02
  3.291351e-02
  3.382608e-02
  3.316131e-02
  3.099696e-02
  2.793173e-02
  2.443302e-02
  2.081520e-02
  1.774207e-02
  1.555854e-02
  1.485360e-02
  1.995362e-02
  5.154532e-02
  1.898650e-01
  5.719538e-01
  8.709957e-01
  9.668479e-01
  9.914517e-01
  9.973570e-01
  9.984982e-01
  9.979487e-01
  9.947535e-01
  9.819104e-01
  9.321274e-01
  7.565526e-01
  3.516799e-01
  9.841426e-02
  3.594734e-02
  2.465443e-02
  2.454863e-02
  2.720046e-02
  3.005868e-02
  3.177312e-02
  3.179490e-02
  3.021696e-02
  2.775940e-02
  2.585045e-02
  2.645132e-02
  3.294520e-02
  5.407234e-02
  1.000861e-01
  1.583902e-01
  1.841966e-01
  1.579227e-01
  1.008785e-01
  5.487620e-02
  3.120385e-02
  2.297246e-02
  2.208600e-02
  2.589936e-02
  4.067984e-02
  7.347697e-02
  2.466094e-01
  6.911436e-01
  9.060745e-01
  9.593600e-01
  9.494316e-01
  8.493947e-01
  5.141620e-01
  1.512736e-01
  5.844602e-02
  4.986571e-02
  6.298990e-02
  8.027257e-02
  9.772358e-02
  1.122211e-01
  1.186482e-01
  1.136623e-01
  9.886112e-02
  7.926985e-02
  5.863040e-02
  3.913171e-02
  2.549875e-02
  1.852656e-02
  1.530033e-02
  1.522769e-02
  2.474460e-02
  7.348734e-02
  2.576616e-01
  6.501913e-01
  8.929536e-01
  9.708432e-01
  9.921559e-01
  9.978822e-01
  9.993827e-01
  9.992699e-01
  9.965775e-01
  9.820117e-01
  9.105847e-01
  6.332764e-01
  1.836185e-01
  5.349391e-02
  2.802432e-02
  2.393164e-02
  2.379552e-02
  2.420920e-02
  2.445413e-02
  2.439948e-02
  2.411927e-02
  2.392513e-02
  2.484692e-02
  3.069152e-02
  5.606936e-02
  1.463059e-01
  3.473502e-01
  5.759000e-01
  6.619748e-01
  5.828279e-01
  3.687834e-01
  1.735305e-01
  6.762281e-02
  3.060199e-02
  2.164597e-02
  2.263179e-02
  3.243854e-02
  4.206969e-02
  1.116068e-01
  3.289691e-01
  6.217887e-01
  7.517611e-01
  7.294139e-01
  5.382241e-01
  2.394354e-01
  9.301551e-02
  7.787607e-02
  1.358281e-01
  2.292583e-01
  3.187265e-01
  3.995439e-01
  4.628358e-01
  4.895220e-01
  4.681596e-01
  4.045411e-01
  3.179841e-01
  2.220390e-01
  1.234772e-01
  5.590576e-02
  2.773666e-02
  1.808192e-02
  1.470661e-02
  1.576272e-02
  2.971260e-02
  9.184765e-02
  2.994346e-01
  6.804757e-01
  8.987579e-01
  9.710579e-01
  9.921668e-01
  9.983358e-01
  9.999000e-01
  9.999000e-01
  9.966045e-01
  9.617895e-01
  7.809416e-01
  2.584352e-01
  7.051831e-02
  3.216409e-02
  2.526915e-02
  2.417002e-02
  2.401687e-02
  2.391998e-02
  2.374600e-02
  2.357106e-02
  2.383414e-02
  2.663014e-02
  4.207240e-02
  1.160817e-01
  3.931701e-01
  7.552437e-01
  9.015194e-01
  9.348558e-01
  9.074534e-01
  7.947284e-01
  5.153507e-01
  1.933044e-01
  5.985750e-02
  2.533594e-02
  1.966295e-02
  2.380494e-02
  2.394505e-02
  4.373883e-02
  9.576378e-02
  1.759574e-01
  2.283391e-01
  2.209611e-01
  1.584045e-01
  9.026996e-02
  8.040005e-02
  1.752346e-01
  4.461097e-01
  7.126354e-01
  8.247875e-01
  8.678009e-01
  8.878906e-01
  8.950157e-01
  8.895184e-01
  8.694357e-01
  8.236466e-01
  7.044789e-01
  4.297700e-01
  1.624402e-01
  5.402039e-02
  2.456255e-02
  1.640209e-02
  1.391814e-02
  1.621252e-02
  3.321792e-02
  1.015140e-01
  3.124691e-01
  6.798534e-01
  8.925630e-01
  9.671474e-01
  9.907552e-01
  9.981902e-01
  9.999000e-01
  9.998897e-01
  9.731398e-01
  8.172717e-01
  2.888929e-01
  7.881125e-02
  3.491964e-02
  2.675417e-02
  2.526053e-02
  2.491383e-02
  2.467839e-02
  2.437545e-02
  2.409785e-02
  2.455880e-02
  2.955437e-02
  5.878707e-02
  2.044513e-01
  6.752476e-01
  9.221041e-01
  9.831136e-01
  9.930381e-01
  9.856235e-01
  9.494137e-01
  8.202604e-01
  4.662647e-01
  1.397247e-01
  3.997839e-02
  1.897216e-02
  1.758086e-02
  1.531612e-02
  2.111432e-02
  3.273264e-02
  4.889577e-02
  6.048126e-02
  6.113207e-02
  5.343780e-02
  5.468458e-02
  1.141052e-01
  3.777984e-01
  7.826811e-01
  9.332849e-01
  9.719191e-01
  9.816125e-01
  9.847558e-01
  9.857678e-01
  9.851162e-01
  9.819678e-01
  9.716984e-01
  9.326104e-01
  7.859556e-01
  3.965863e-01
  1.099207e-01
  3.615849e-02
  1.944160e-02
  1.467637e-02
  1.328616e-02
  1.644484e-02
  3.441388e-02
  1.012533e-01
  2.976897e-01
  6.462618e-01
  8.675019e-01
  9.539727e-01
  9.844179e-01
  9.944445e-01
  9.924817e-01
  9.547240e-01
  7.682536e-01
  2.583142e-01
  7.375589e-02
  3.516118e-02
  2.781686e-02
  2.640968e-02
  2.604407e-02
  2.575494e-02
  2.534637e-02
  2.492377e-02
  2.544312e-02
  3.218948e-02
  7.296651e-02
  2.735439e-01
  7.992976e-01
  9.668090e-01
  9.980308e-01
  9.999000e-01
  9.989204e-01
  9.878032e-01
  9.386574e-01
  7.478838e-01
  3.063670e-01
  7.848142e-02
  2.357379e-02
  1.410106e-02
  1.090104e-02
  1.298486e-02
  1.686822e-02
  2.148779e-02
  2.536263e-02
  2.784663e-02
  3.163866e-02
  5.184622e-02
  1.586373e-01
  5.716018e-01
  9.050730e-01
  9.855006e-01
  9.989327e-01
  9.999000e-01
  9.998590e-01
  9.998289e-01
  9.999000e-01
  9.999000e-01
  9.987876e-01
  9.875220e-01
  9.203898e-01
  6.384646e-01
  1.778330e-01
  4.945457e-02
  2.275365e-02
  1.620981e-02
  1.370803e-02
  1.304942e-02
  1.648966e-02
  3.320908e-02
  9.084643e-02
  2.513697e-01
  5.537763e-01
  7.976042e-01
  9.088302e-01
  9.472131e-01
  9.398643e-01
  8.555951e-01
  5.707278e-01
  1.751561e-01
  5.793696e-02
  3.323423e-02
  2.839900e-02
  2.749203e-02
  2.727675e-02
  2.704266e-02
  2.659631e-02
  2.602409e-02
  2.639117e-02
  3.373493e-02
  7.979710e-02
  3.048147e-01
  8.331515e-01
  9.760685e-01
  9.996221e-01
  9.999000e-01
  9.999000e-01
  9.964996e-01
  9.771428e-01
  8.897969e-01
  5.724037e-01
  1.659824e-01
  4.011335e-02
  1.407105e-02
  9.483496e-03
  9.099234e-03
  1.136425e-02
  1.421120e-02
  1.703931e-02
  2.005334e-02
  2.594471e-02
  4.962845e-02
  1.659089e-01
  6.069085e-01
  9.215317e-01
  9.912635e-01
  9.999000e-01
  9.999000e-01
  9.999000e-01
  9.999000e-01
  9.999000e-01
  9.999000e-01
  9.999000e-01
  9.960634e-01
  9.486787e-01
  7.155819e-01
  2.064858e-01
  5.560347e-02
  2.478513e-02
  1.771084e-02
  1.508890e-02
  1.362390e-02
  1.342839e-02
  1.673869e-02
  3.041062e-02
  7.212774e-02
  1.754907e-01
  3.664073e-01
  6.020542e-01
  7.203342e-01
  7.006469e-01
  5.216313e-01
  2.459822e-01
  8.674442e-02
  4.124349e-02
  3.081144e-02
  2.876343e-02
  2.856174e-02
  2.868860e-02
  2.871340e-02
  2.840193e-02
  2.772174e-02
  2.766167e-02
  3.414918e-02
  7.806792e-02
  2.963042e-01
  8.256721e-01
  9.733631e-01
  9.985418e-01
  9.999000e-01
  9.999000e-01
  9.984908e-01
  9.901619e-01
  9.513580e-01
  7.846077e-01
  3.379087e-01
  8.494132e-02
  2.149022e-02
  1.459416e-02
  8.122392e-03
  8.746404e-03
  1.109908e-02
  1.384759e-02
  1.695066e-02
  2.231434e-02
  4.074516e-02
  1.265415e-01
  4.699229e-01
  8.620541e-01
  9.725705e-01
  9.949987e-01
  9.987633e-01
  9.993478e-01
  9.995107e-01
  9.997079e-01
  9.997991e-01
  9.983383e-01
  9.863063e-01
  9.172679e-01
  6.319739e-01
  1.768837e-01
  5.070291e-02
  2.486067e-02
  1.891103e-02
  1.673531e-02
  1.549024e-02
  1.502376e-02
  1.616137e-02
  2.066159e-02
  3.206477e-02
  5.776938e-02
  1.069483e-01
  1.755388e-01
  2.201577e-01
  2.102177e-01
  1.501691e-01
  8.135904e-02
  4.425415e-02
  3.223229e-02
  2.940042e-02
  2.922100e-02
  2.978583e-02
  3.061708e-02
  3.150700e-02
  3.194674e-02
  3.135764e-02
  3.037511e-02
  3.430161e-02
  6.926228e-02
  2.526755e-01
  7.740820e-01
  9.581630e-01
  9.948098e-01
  9.999000e-01
  9.999000e-01
  9.989343e-01
  9.948638e-01
  9.776424e-01
  9.013928e-01
  6.168709e-01
  2.014593e-01
  5.051279e-02
  4.222296e-02
  1.527046e-02
  9.698775e-03
  1.013063e-02
  1.229803e-02
  1.509039e-02
  1.915178e-02
  2.989020e-02
  7.391065e-02
  2.545374e-01
  6.637277e-01
  8.847872e-01
  9.538567e-01
  9.730310e-01
  9.786171e-01
  9.804667e-01
  9.806879e-01
  9.784842e-01
  9.683413e-01
  9.274037e-01
  7.760924e-01
  3.866933e-01
  1.096307e-01
  3.896145e-02
  2.368983e-02
  1.992227e-02
  1.862421e-02
  1.846086e-02
  2.037701e-02
  2.682573e-02
  3.933672e-02
  5.499612e-02
  7.103234e-02
  8.708109e-02
  9.934664e-02
  9.747630e-02
  7.934274e-02
  5.661508e-02
  3.952141e-02
  3.131991e-02
  2.893788e-02
  2.896135e-02
  2.991894e-02
  3.156662e-02
  3.435533e-02
  3.876515e-02
  4.294353e-02
  4.341824e-02
  3.958364e-02
  3.729616e-02
  5.714895e-02
  1.824073e-01
  6.291403e-01
  9.096895e-01
  9.816781e-01
  9.966796e-01
  9.991282e-01
  9.987465e-01
  9.965367e-01
  9.888592e-01
  9.573399e-01
  8.279185e-01
  4.563954e-01
  1.453438e-01
  1.522542e-01
  5.565640e-02
  2.439099e-02
  1.520736e-02
  1.357062e-02
  1.470954e-02
  1.721985e-02
  2.241614e-02
  3.912576e-02
  1.012644e-01
  2.862007e-01
  5.737398e-01
  7.553827e-01
  8.240826e-01
  8.491688e-01
  8.585399e-01
  8.585617e-01
  8.464907e-01
  8.064426e-01
  6.863639e-01
  4.124826e-01
  1.581766e-01
  5.616897e-02
  2.925193e-02
  2.272255e-02
  2.106718e-02
  2.120395e-02
  2.439059e-02
  3.707815e-02
  7.407856e-02
  1.427232e-01
  2.151344e-01
  2.648729e-01
  2.856287e-01
  2.698398e-01
  2.105168e-01
  1.241607e-01
  6.229700e-02
  3.671933e-02
  2.932648e-02
  2.820766e-02
  2.908625e-02
  3.105934e-02
  3.514372e-02
  4.499089e-02
  6.612273e-02
  8.990092e-02
  9.657895e-02
  7.976332e-02
  5.515758e-02
  4.976860e-02
  1.064720e-01
  3.642150e-01
  7.690460e-01
  9.362840e-01
  9.827697e-01
  9.946300e-01
  9.971567e-01
  9.966306e-01
  9.933509e-01
  9.814153e-01
  9.346115e-01
  7.681492e-01
  4.078024e-01
  4.857670e-01
  2.257330e-01
  9.941656e-02
  4.679414e-02
  2.575363e-02
  1.862684e-02
  1.757244e-02
  1.926756e-02
  2.445144e-02
  4.028028e-02
  8.315537e-02
  1.597103e-01
  2.373478e-01
  2.955154e-01
  3.346160e-01
  3.555731e-01
  3.559669e-01
  3.326493e-01
  2.836819e-01
  2.089600e-01
  1.197513e-01
  5.760607e-02
  3.230795e-02
  2.461406e-02
  2.258945e-02
  2.262809e-02
  2.548430e-02
  3.871041e-02
  9.181430e-02
  2.578968e-01
  5.325126e-01
  7.292406e-01
  8.039223e-01
  8.198927e-01
  7.907272e-01
  6.710754e-01
  3.975038e-01
  1.537762e-01
  5.741378e-02
  3.313319e-02
  2.882615e-02
  2.960066e-02
  3.313558e-02
  4.385731e-02
  7.983440e-02
  1.789951e-01
  2.935423e-01
  3.280237e-01
  2.557185e-01
  1.341221e-01
  6.343397e-02
  6.216518e-02
  1.578623e-01
  4.539635e-01
  7.849851e-01
  9.284547e-01
  9.756302e-01
  9.902702e-01
  9.943601e-01
  9.943206e-01
  9.904603e-01
  9.760249e-01
  9.256011e-01
  7.772852e-01
  8.468701e-01
  6.628962e-01
  3.874628e-01
  1.898979e-01
  8.391369e-02
  3.805052e-02
  2.299238e-02
  1.965773e-02
  2.017920e-02
  2.342026e-02
  3.145411e-02
  4.527919e-02
  6.036011e-02
  7.289879e-02
  8.208588e-02
  8.754105e-02
  8.840115e-02
  8.380890e-02
  7.354085e-02
  5.844417e-02
  4.178042e-02
  3.014443e-02
  2.491975e-02
  2.320191e-02
  2.306912e-02
  2.468704e-02
  3.257974e-02
  6.927524e-02
  2.256921e-01
  6.287115e-01
  8.695269e-01
  9.476492e-01
  9.692061e-01
  9.729331e-01
  9.639656e-01
  9.210910e-01
  7.647538e-01
  3.772585e-01
  1.098854e-01
  4.290909e-02
  3.053463e-02
  3.043450e-02
  3.660165e-02
  6.232328e-02
  1.722579e-01
  5.191298e-01
  7.798909e-01
  8.302063e-01
  7.214246e-01
  3.856427e-01
  1.195957e-01
  5.200600e-02
  6.448529e-02
  1.649657e-01
  4.194727e-01
  7.346904e-01
  8.974372e-01
  9.604702e-01
  9.833809e-01
  9.910550e-01
  9.924604e-01
  9.892778e-01
  9.768067e-01
  9.395591e-01
  9.637607e-01
  9.174978e-01
  8.141327e-01
  6.061183e-01
  3.019259e-01
  1.112736e-01
  4.202053e-02
  2.411442e-02
  2.018655e-02
  1.968595e-02
  2.051806e-02
  2.236695e-02
  2.462205e-02
  2.683334e-02
  2.894352e-02
  3.084171e-02
  3.214315e-02
  3.239373e-02
  3.131240e-02
  2.901340e-02
  2.623850e-02
  2.419401e-02
  2.323322e-02
  2.305818e-02
  2.371433e-02
  2.684279e-02
  4.139816e-02
  1.119790e-01
  4.048653e-01
  8.387788e-01
  9.675585e-01
  9.940471e-01
  9.985953e-01
  9.991196e-01
  9.971773e-01
  9.838933e-01
  9.138742e-01
  6.323480e-01
  1.810970e-01
  5.587058e-02
  3.268021e-02
  3.122282e-02
  3.998561e-02
  8.224441e-02
  2.732484e-01
  7.691406e-01
  9.512926e-01
  9.787256e-01
  9.216562e-01
  6.586709e-01
  1.944383e-01
  5.850513e-02
  3.577639e-02
  5.471040e-02
  1.313518e-01
  3.201766e-01
  6.266862e-01
  8.368651e-01
  9.348222e-01
  9.735193e-01
  9.874701e-01
  9.915829e-01
  9.905699e-01
  9.834044e-01
  9.915647e-01
  9.833409e-01
  9.601354e-01
  8.934454e-01
  6.983697e-01
  3.132090e-01
  9.144953e-02
  3.477588e-02
  2.240287e-02
  1.941626e-02
  1.842675e-02
  1.811852e-02
  1.841148e-02
  1.960817e-02
  2.207107e-02
  2.557649e-02
  2.890764e-02
  3.081073e-02
  3.055413e-02
  2.841171e-02
  2.577910e-02
  2.404632e-02
  2.329400e-02
  2.323685e-02
  2.410543e-02
  2.811728e-02
  4.728905e-02
  1.424948e-01
  5.240651e-01
  9.021422e-01
  9.885220e-01
  9.999000e-01
  9.999000e-01
  9.999000e-01
  9.999000e-01
  9.956060e-01
  9.518790e-01
  7.358027e-01
  2.207074e-01
  6.329091e-02
  3.385927e-02
  3.149633e-02
  4.097038e-02
  8.850587e-02
  3.046337e-01
  8.191656e-01
  9.767394e-01
  9.987731e-01
  9.530902e-01
  7.228397e-01
  2.174659e-01
  6.113925e-02
  2.880378e-02
  2.578468e-02
  4.046302e-02
  8.962188e-02
  2.152424e-01
  4.646176e-01
  7.449291e-01
  8.973916e-01
  9.604377e-01
  9.838260e-01
  9.918493e-01
  9.936997e-01
  9.972309e-01
  9.979531e-01
  9.942157e-01
  9.770634e-01
  8.976942e-01
  6.038990e-01
  1.726501e-01
  5.108781e-02
  2.576042e-02
  1.998620e-02
  1.814054e-02
  1.768115e-02
  1.905525e-02
  2.411305e-02
  3.507039e-02
  5.096964e-02
  6.483075e-02
  7.060096e-02
  6.527778e-02
  5.098679e-02
  3.596268e-02
  2.755296e-02
  2.431167e-02
  2.343171e-02
  2.398057e-02
  2.763862e-02
  4.541883e-02
  1.335571e-01
  4.915250e-01
  8.883214e-01
  9.848193e-01
  9.999000e-01
  9.999000e-01
  9.999000e-01
  9.999000e-01
  9.923727e-01
  9.400121e-01
  7.002180e-01
  2.052872e-01
  6.026018e-02
  3.346791e-02
  3.153990e-02
  3.971122e-02
  7.784449e-02
  2.497118e-01
  7.251310e-01
  9.264306e-01
  9.565794e-01
  8.831533e-01
  5.855333e-01
  1.702570e-01
  5.272972e-02
  2.674869e-02
  2.023228e-02
  2.011217e-02
  2.851942e-02
  5.739970e-02
  1.363367e-01
  3.215879e-01
  6.321487e-01
  8.482702e-01
  9.444022e-01
  9.802058e-01
  9.928239e-01
  9.930317e-01
  9.992398e-01
  9.999000e-01
  9.967973e-01
  9.560657e-01
  7.514267e-01
  2.331507e-01
  6.382593e-02
  2.836530e-02
  2.047154e-02
  1.839089e-02
  1.952056e-02
  2.753982e-02
  5.254465e-02
  1.076456e-01
  1.871460e-01
  2.496504e-01
  2.705740e-01
  2.391479e-01
  1.621211e-01
  8.095740e-02
  4.035784e-02
  2.725589e-02
  2.374170e-02
  2.337552e-02
  2.568877e-02
  3.739676e-02
  9.388306e-02
  3.332500e-01
  7.835100e-01
  9.480315e-01
  9.874939e-01
  9.955704e-01
  9.961048e-01
  9.908636e-01
  9.658764e-01
  8.615686e-01
  5.140109e-01
  1.442349e-01
  4.921456e-02
  3.272659e-02
  3.368917e-02
  4.172418e-02
  6.492829e-02
  1.528713e-01
  4.310653e-01
  6.978444e-01
  7.483793e-01
  6.036494e-01
  2.854828e-01
  9.370009e-02
  4.030751e-02
  2.644754e-02
  2.118678e-02
  1.807682e-02
  1.704981e-02
  2.090407e-02
  3.761809e-02
  8.900001e-02
  2.274462e-01
  5.112574e-01
  7.906325e-01
  9.255214e-01
  9.754706e-01
  9.638682e-01
  9.886284e-01
  9.971660e-01
  9.944833e-01
  9.523736e-01
  7.452009e-01
  2.322650e-01
  6.424272e-02
  2.855124e-02
  2.058541e-02
  1.984073e-02
  2.795185e-02
  6.340929e-02
  1.729025e-01
  3.988113e-01
  6.577073e-01
  7.812619e-01
  8.073131e-01
  7.526660e-01
  5.535125e-01
  2.434645e-01
  7.939709e-02
  3.477078e-02
  2.453298e-02
  2.252675e-02
  2.332676e-02
  2.897654e-02
  5.509277e-02
  1.668254e-01
  5.003731e-01
  8.001442e-01
  9.176408e-01
  9.536977e-01
  9.572893e-01
  9.339805e-01
  8.514414e-01
  6.239525e-01
  2.521863e-01
  7.909077e-02
  3.873074e-02
  3.575215e-02
  4.717667e-02
  6.790727e-02
  8.888512e-02
  1.149406e-01
  1.735074e-01
  2.406052e-01
  2.489511e-01
  1.868181e-01
  9.909710e-02
  5.147341e-02
  3.641696e-02
  3.129184e-02
  2.698354e-02
  2.215624e-02
  1.806357e-02
  1.576334e-02
  1.696006e-02
  2.711507e-02
  6.251689e-02
  1.652432e-01
  4.051646e-01
  7.252631e-01
  8.973106e-01
  8.298078e-01
  9.228490e-01
  9.552304e-01
  9.477513e-01
  8.645514e-01
  5.700126e-01
  1.675624e-01
  5.176362e-02
  2.621254e-02
  2.077771e-02
  2.520156e-02
  5.637795e-02
  1.819808e-01
  5.016451e-01
  7.990680e-01
  9.228493e-01
  9.630484e-01
  9.709243e-01
  9.519151e-01
  8.573314e-01
  5.440442e-01
  1.559444e-01
  4.811788e-02
  2.587519e-02
  2.158713e-02
  2.123864e-02
  2.320636e-02
  3.197225e-02
  6.631891e-02
  1.760202e-01
  3.896945e-01
  6.281513e-01
  7.434149e-01
  7.570752e-01
  6.798174e-01
  4.759918e-01
  2.373517e-01
  9.359627e-02
  4.386798e-02
  3.642480e-02
  5.283628e-02
  1.086579e-01
  2.034236e-01
  2.634424e-01
  2.473601e-01
  1.723046e-01
  1.116984e-01
  8.553069e-02
  6.630184e-02
  5.073725e-02
  4.767315e-02
  5.427561e-02
  5.768943e-02
  5.004277e-02
  3.598622e-02
  2.488126e-02
  1.865039e-02
  1.548197e-02
  1.536368e-02
  2.192380e-02
  4.703335e-02
  1.228196e-01
  3.122766e-01
  6.232781e-01
  4.102746e-01
  6.377109e-01
  7.422373e-01
  7.234259e-01
  5.494231e-01
  2.547307e-01
  8.439943e-02
  3.547535e-02
  2.305961e-02
  2.237806e-02
  4.006570e-02
  1.307317e-01
  4.433471e-01
  8.098501e-01
  9.475973e-01
  9.866608e-01
  9.972090e-01
  9.994002e-01
  9.935230e-01
  9.498467e-01
  7.439411e-01
  2.297677e-01
  6.091865e-02
  2.679228e-02
  2.049113e-02
  1.953218e-02
  1.999337e-02
  2.233309e-02
  3.055492e-02
  5.450608e-02
  1.036822e-01
  1.694974e-01
  2.150560e-01
  2.223062e-01
  1.892834e-01
  1.273191e-01
  7.081105e-02
  4.083601e-02
  3.328615e-02
  4.495993e-02
  1.058176e-01
  3.242952e-01
  6.449151e-01
  7.678199e-01
  7.026943e-01
  4.195039e-01
  1.461823e-01
  6.437093e-02
  4.716957e-02
  5.425346e-02
  9.160299e-02
  1.541017e-01
  1.871823e-01
  1.563261e-01
  9.002471e-02
  4.426567e-02
  2.597383e-02
  1.888079e-02
  1.568371e-02
  1.511842e-02
  1.953597e-02
  3.694205e-02
  8.731271e-02
  2.053776e-01
  1.053770e-01
  1.721453e-01
  2.164586e-01
  2.118629e-01
  1.547522e-01
  8.126290e-02
  4.002730e-02
  2.521078e-02
  2.110812e-02
  2.722858e-02
  7.233136e-02
  2.781799e-01
  7.300875e-01
  9.347160e-01
  9.869673e-01
  9.984584e-01
  9.999000e-01
  9.999000e-01
  9.988707e-01
  9.702094e-01
  8.071303e-01
  2.659593e-01
  6.658538e-02
  2.633481e-02
  1.915774e-02
  1.807747e-02
  1.815996e-02
  1.875830e-02
  2.051452e-02
  2.510015e-02
  3.407557e-02
  4.602106e-02
  5.493436e-02
  5.682508e-02
  5.113166e-02
  4.073109e-02
  3.184393e-02
  2.849572e-02
  3.306180e-02
  6.055559e-02
  1.903872e-01
  6.293279e-01
  9.001533e-01
  9.610523e-01
  9.222510e-01
  7.005846e-01
  2.305211e-01
  7.733978e-02
  5.597791e-02
  1.001806e-01
  2.717486e-01
  5.329082e-01
  6.505136e-01
  5.527965e-01
  2.917744e-01
  1.010432e-01
  4.083844e-02
  2.436096e-02
  1.877625e-02
  1.625438e-02
  1.572232e-02
  1.862204e-02
  2.917351e-02
  5.535518e-02
  3.377100e-02
  4.664457e-02
  5.608868e-02
  5.633808e-02
  4.653166e-02
  3.324572e-02
  2.446162e-02
  2.039612e-02
  2.079994e-02
  3.649918e-02
  1.279585e-01
  5.018924e-01
  8.745829e-01
  9.761542e-01
  9.969083e-01
  9.999000e-01
  9.999000e-01
  9.999000e-01
  9.980555e-01
  9.698333e-01
  8.082252e-01
  2.629009e-01
  6.400733e-02
  2.442674e-02
  1.764555e-02
  1.679386e-02
  1.695953e-02
  1.733597e-02
  1.796937e-02
  1.919058e-02
  2.126179e-02
  2.385887e-02
  2.597603e-02
  2.687515e-02
  2.646660e-02
  2.540430e-02
  2.500413e-02
  2.669379e-02
  3.437897e-02
  6.921252e-02
  2.331744e-01
  7.392253e-01
  9.553560e-01
  9.955502e-01
  9.644205e-01
  7.777215e-01
  2.665692e-01
  8.742788e-02
  7.547070e-02