# vtk DataFile Version 2.0
time_10.vtk
ASCII
DATASET STRUCTURED_GRID
DIMENSIONS    64    64     1
POINTS    4096 float
  0.000000e+00   0.000000e+00   0.000000e+00
  0.000000e+00   1.000000e+00   0.000000e+00
  0.000000e+00   2.000000e+00   0.000000e+00
  0.000000e+00   3.000000e+00   0.000000e+00
  0.000000e+00   4.000000e+00   0.000000e+00
  0.000000e+00   5.000000e+00   0.000000e+00
  0.000000e+00   6.000000e+00   0.000000e+00
  0.000000e+00   7.000000e+00   0.000000e+00
  0.000000e+00   8.000000e+00   0.000000e+00
  0.000000e+00   9.000000e+00   0.000000e+00
  0.000000e+00   1.000000e+01   0.000000e+00
  0.000000e+00   1.100000e+01   0.000000e+00
  0.000000e+00   1.200000e+01   0.000000e+00
  0.000000e+00   1.300000e+01   0.000000e+00
  0.000000e+00   1.400000e+01   0.000000e+00
  0.000000e+00   1.500000e+01   0.000000e+00
  0.000000e+00   1.600000e+01   0.000000e+00
  0.000000e+00   1.700000e+01   0.000000e+00
  0.000000e+00   1.800000e+01   0.000000e+00
  0.000000e+00   1.900000e+01   0.000000e+00
  0.000000e+00   2.000000e+01   0.000000e+00
  0.000000e+00   2.100000e+01   0.000000e+00
  0.000000e+00   2.200000e+01   0.000000e+00
  0.000000e+00   2.300000e+01   0.000000e+00
  0.000000e+00   2.400000e+01   0.000000e+00
  0.000000e+00   2.500000e+01   0.000000e+00
  0.000000e+00   2.600000e+01   0.000000e+00
  0.000000e+00   2.700000e+01   0.000000e+00
  0.000000e+00   2.800000e+01   0.000000e+00
  0.000000e+00   2.900000e+01   0.000000e+00
  0.000000e+00   3.000000e+01   0.000000e+00
  0.000000e+00   3.100000e+01   0.000000e+00
  0.000000e+00   3.200000e+01   0.000000e+00
  0.000000e+00   3.300000e+01   0.000000e+00
  0.000000e+00   3.400000e+01   0.000000e+00
  0.000000e+00   3.500000e+01   0.000000e+00
  0.000000e+00   3.600000e+01   0.000000e+00
  0.000000e+00   3.700000e+01   0.000000e+00
  0.000000e+00   3.800000e+01   0.000000e+00
  0.000000e+00   3.900000e+01   0.000000e+00
  0.000000e+00   4.000000e+01   0.000000e+00
  0.000000e+00   4.100000e+01   0.000000e+00
  0.000000e+00   4.200000e+01   0.000000e+00
  0.000000e+00   4.300000e+01   0.000000e+00
  0.000000e+00   4.400000e+01   0.000000e+00
  0.000000e+00   4.500000e+01   0.000000e+00
  0.000000e+00   4.600000e+01   0.000000e+00
  0.000000e+00   4.700000e+01   0.000000e+00
  0.000000e+00   4.800000e+01   0.000000e+00
  0.000000e+00   4.900000e+01   0.000000e+00
  0.000000e+00   5.000000e+01   0.000000e+00
  0.000000e+00   5.100000e+01   0.000000e+00
  0.000000e+00   5.200000e+01   0.000000e+00
  0.000000e+00   5.300000e+01   0.000000e+00
  0.000000e+00   5.400000e+01   0.000000e+00
  0.000000e+00   5.500000e+01   0.000000e+00
  0.000000e+00   5.600000e+01   0.000000e+00
  0.000000e+00   5.700000e+01   0.000000e+00
  0.000000e+00   5.800000e+01   0.000000e+00
  0.000000e+00   5.900000e+01   0.000000e+00
  0.000000e+00   6.000000e+01   0.000000e+00
  0.000000e+00   6.100000e+01   0.000000e+00
  0.000000e+00   6.200000e+01   0.000000e+00
  0.000000e+00   6.300000e+01   0.000000e+00
  1.000000e+00   0.000000e+00   0.000000e+00
  1.000000e+00   1.000000e+00   0.000000e+00
  1.000000e+00   2.000000e+00   0.000000e+00
  1.000000e+00   3.000000e+00   0.000000e+00
  1.000000e+00   4.000000e+00   0.000000e+00
  1.000000e+00   5.000000e+00   0.000000e+00
  1.000000e+00   6.000000e+00   0.000000e+00
  1.000000e+00   7.000000e+00   0.000000e+00
  1.000000e+00   8.000000e+00   0.000000e+00
  1.000000e+00   9.000000e+00   0.000000e+00
  1.000000e+00   1.000000e+01   0.000000e+00
  1.000000e+00   1.100000e+01   0.000000e+00
  1.000000e+00   1.200000e+01   0.000000e+00
  1.000000e+00   1.300000e+01   0.000000e+00
  1.000000e+00   1.400000e+01   0.000000e+00
  1.000000e+00   1.500000e+01   0.000000e+00
  1.000000e+00   1.600000e+01   0.000000e+00
  1.000000e+00   1.700000e+01   0.000000e+00
  1.000000e+00   1.800000e+01   0.000000e+00
  1.000000e+00   1.900000e+01   0.000000e+00
  1.000000e+00   2.000000e+01   0.000000e+00
  1.000000e+00   2.100000e+01   0.000000e+00
  1.000000e+00   2.200000e+01   0.000000e+00
  1.000000e+00   2.300000e+01   0.000000e+00
  1.000000e+00   2.400000e+01   0.000000e+00
  1.000000e+00   2.500000e+01   0.000000e+00
  1.000000e+00   2.600000e+01   0.000000e+00
  1.000000e+00   2.700000e+01   0.000000e+00
  1.000000e+00   2.800000e+01   0.000000e+00
  1.000000e+00   2.900000e+01   0.000000e+00
  1.000000e+00   3.000000e+01   0.000000e+00
  1.000000e+00   3.100000e+01   0.000000e+00
  1.000000e+00   3.200000e+01   0.000000e+00
  1.000000e+00   3.300000e+01   0.000000e+00
  1.000000e+00   3.400000e+01   0.000000e+00
  1.000000e+00   3.500000e+01   0.000000e+00
  1.000000e+00   3.600000e+01   0.000000e+00
  1.000000e+00   3.700000e+01   0.000000e+00
  1.000000e+00   3.800000e+01   0.000000e+00
  1.000000e+00   3.900000e+01   0.000000e+00
  1.000000e+00   4.000000e+01   0.000000e+00
  1.000000e+00   4.100000e+01   0.000000e+00
  1.000000e+00   4.200000e+01   0.000000e+00
  1.000000e+00   4.300000e+01   0.000000e+00
  1.000000e+00   4.400000e+01   0.000000e+00
  1.000000e+00   4.500000e+01   0.000000e+00
  1.000000e+00   4.600000e+01   0.000000e+00
  1.000000e+00   4.700000e+01   0.000000e+00
  1.000000e+00   4.800000e+01   0.000000e+00
  1.000000e+00   4.900000e+01   0.000000e+00
  1.000000e+00   5.000000e+01   0.000000e+00
  1.000000e+00   5.100000e+01   0.000000e+00
  1.000000e+00   5.200000e+01   0.000000e+00
  1.000000e+00   5.300000e+01   0.000000e+00
  1.000000e+00   5.400000e+01   0.000000e+00
  1.000000e+00   5.500000e+01   0.000000e+00
  1.000000e+00   5.600000e+01   0.000000e+00
  1.000000e+00   5.700000e+01   0.000000e+00
  1.000000e+00   5.800000e+01   0.000000e+00
  1.000000e+00   5.900000e+01   0.000000e+00
  1.000000e+00   6.000000e+01   0.000000e+00
  1.000000e+00   6.100000e+01   0.000000e+00
  1.000000e+00   6.200000e+01   0.000000e+00
  1.000000e+00   6.300000e+01   0.000000e+00
  2.000000e+00   0.000000e+00   0.000000e+00
  2.000000e+00   1.000000e+00   0.000000e+00
  2.000000e+00   2.000000e+00   0.000000e+00
  2.000000e+00   3.000000e+00   0.000000e+00
  2.000000e+00   4.000000e+00   0.000000e+00
  2.000000e+00   5.000000e+00   0.000000e+00
  2.000000e+00   6.000000e+00   0.000000e+00
  2.000000e+00   7.000000e+00   0.000000e+00
  2.000000e+00   8.000000e+00   0.000000e+00
  2.000000e+00   9.000000e+00   0.000000e+00
  2.000000e+00   1.000000e+01   0.000000e+00
  2.000000e+00   1.100000e+01   0.000000e+00
  2.000000e+00   1.200000e+01   0.000000e+00
  2.000000e+00   1.300000e+01   0.000000e+00
  2.000000e+00   1.400000e+01   0.000000e+00
  2.000000e+00   1.500000e+01   0.000000e+00
  2.000000e+00   1.600000e+01   0.000000e+00
  2.000000e+00   1.700000e+01   0.000000e+00
  2.000000e+00   1.800000e+01   0.000000e+00
  2.000000e+00   1.900000e+01   0.000000e+00
  2.000000e+00   2.000000e+01   0.000000e+00
  2.000000e+00   2.100000e+01   0.000000e+00
  2.000000e+00   2.200000e+01   0.000000e+00
  2.000000e+00   2.300000e+01   0.000000e+00
  2.000000e+00   2.400000e+01   0.000000e+00
  2.000000e+00   2.500000e+01   0.000000e+00
  2.000000e+00   2.600000e+01   0.000000e+00
  2.000000e+00   2.700000e+01   0.000000e+00
  2.000000e+00   2.800000e+01   0.000000e+00
  2.000000e+00   2.900000e+01   0.000000e+00
  2.000000e+00   3.000000e+01   0.000000e+00
  2.000000e+00   3.100000e+01   0.000000e+00
  2.000000e+00   3.200000e+01   0.000000e+00
  2.000000e+00   3.300000e+01   0.000000e+00
  2.000000e+00   3.400000e+01   0.000000e+00
  2.000000e+00   3.500000e+01   0.000000e+00
  2.000000e+00   3.600000e+01   0.000000e+00
  2.000000e+00   3.700000e+01   0.000000e+00
  2.000000e+00   3.800000e+01   0.000000e+00
  2.000000e+00   3.900000e+01   0.000000e+00
  2.000000e+00   4.000000e+01   0.000000e+00
  2.000000e+00   4.100000e+01   0.000000e+00
  2.000000e+00   4.200000e+01   0.000000e+00
  2.000000e+00   4.300000e+01   0.000000e+00
  2.000000e+00   4.400000e+01   0.000000e+00
  2.000000e+00   4.500000e+01   0.000000e+00
  2.000000e+00   4.600000e+01   0.000000e+00
  2.000000e+00   4.700000e+01   0.000000e+00
  2.000000e+00   4.800000e+01   0.000000e+00
  2.000000e+00   4.900000e+01   0.000000e+00
  2.000000e+00   5.000000e+01   0.000000e+00
  2.000000e+00   5.100000e+01   0.000000e+00
  2.000000e+00   5.200000e+01   0.000000e+00
  2.000000e+00   5.300000e+01   0.000000e+00
  2.000000e+00   5.400000e+01   0.000000e+00
  2.000000e+00   5.500000e+01   0.000000e+00
  2.000000e+00   5.600000e+01   0.000000e+00
  2.000000e+00   5.700000e+01   0.000000e+00
  2.000000e+00   5.800000e+01   0.000000e+00
  2.000000e+00   5.900000e+01   0.000000e+00
  2.000000e+00   6.000000e+01   0.000000e+00
  2.000000e+00   6.100000e+01   0.000000e+00
  2.000000e+00   6.200000e+01   0.000000e+00
  2.000000e+00   6.300000e+01   0.000000e+00
  3.000000e+00   0.000000e+00   0.000000e+00
  3.000000e+00   1.000000e+00   0.000000e+00
  3.000000e+00   2.000000e+00   0.000000e+00
  3.000000e+00   3.000000e+00   0.000000e+00
  3.000000e+00   4.000000e+00   0.000000e+00
  3.000000e+00   5.000000e+00   0.000000e+00
  3.000000e+00   6.000000e+00   0.000000e+00
  3.000000e+00   7.000000e+00   0.000000e+00
  3.000000e+00   8.000000e+00   0.000000e+00
  3.000000e+00   9.000000e+00   0.000000e+00
  3.000000e+00   1.000000e+01   0.000000e+00
  3.000000e+00   1.100000e+01   0.000000e+00
  3.000000e+00   1.200000e+01   0.000000e+00
  3.000000e+00   1.300000e+01   0.000000e+00
  3.000000e+00   1.400000e+01   0.000000e+00
  3.000000e+00   1.500000e+01   0.000000e+00
  3.000000e+00   1.600000e+01   0.000000e+00
  3.000000e+00   1.700000e+01   0.000000e+00
  3.000000e+00   1.800000e+01   0.000000e+00
  3.000000e+00   1.900000e+01   0.000000e+00
  3.000000e+00   2.000000e+01   0.000000e+00
  3.000000e+00   2.100000e+01   0.000000e+00
  3.000000e+00   2.200000e+01   0.000000e+00
  3.000000e+00   2.300000e+01   0.000000e+00
  3.000000e+00   2.400000e+01   0.000000e+00
  3.000000e+00   2.500000e+01   0.000000e+00
  3.000000e+00   2.600000e+01   0.000000e+00
[...]
POINT_DATA  4096
SCALARS CON float 1
LOOKUP_TABLE default
  7.323535e-01
  9.243896e-01
  9.784944e-01
  9.886188e-01
  9.841118e-01
  9.696621e-01
  9.359945e-01
  8.379828e-01
  5.655409e-01
  1.876448e-01
  6.124864e-02
  3.087826e-02
  2.303801e-02
  2.116817e-02
  2.306533e-02
  3.044511e-02
  4.447280e-02
  5.779664e-02
  5.937536e-02
  4.982638e-02
  4.092349e-02
  3.676490e-02
  3.435408e-02
  3.186957e-02
  3.179155e-02
  4.723810e-02
  1.212187e-01
  3.504720e-01
  7.059075e-01
  8.906152e-01
  9.426158e-01
  9.351206e-01
  8.963814e-01
  8.411571e-01
  7.822647e-01
  6.945416e-01
  5.298702e-01
  3.220219e-01
  1.691536e-01
  7.943770e-02
  4.059623e-02
  2.862692e-02
  3.096273e-02
  5.359977e-02
  1.218251e-01
  2.196880e-01
  2.677709e-01
  2.296456e-01
  1.328847e-01
  6.692205e-02
  4.954636e-02
  7.431236e-02
  2.211498e-01
  6.614927e-01
  8.908429e-01
  9.343593e-01
  8.725115e-01
  6.294860e-01
  2.215670e-01
  6.398522e-02
  3.108061e-02
  3.659874e-02
  9.251045e-02
  3.219097e-01
  8.991677e-01
  9.779299e-01
  9.857438e-01
  9.672329e-01
  9.238018e-01
  8.430293e-01
  7.079841e-01
  4.666574e-01
  2.177866e-01
  8.197047e-02
  4.031195e-02
  2.918634e-02
  2.554382e-02
  2.400419e-02
  2.406525e-02
  2.668791e-02
  3.320546e-02
  4.352481e-02
  5.495165e-02
  6.499836e-02
  7.358910e-02
  7.922249e-02
  7.777228e-02
  6.632158e-02
  4.869149e-02
  3.855021e-02
  5.275459e-02
  1.272536e-01
  3.433915e-01
  6.849866e-01
  8.797749e-01
  9.480335e-01
  9.649635e-01
  9.635728e-01
  9.546984e-01
  9.342070e-01
  8.841833e-01
  7.701636e-01
  5.274866e-01
  2.372637e-01
  8.634766e-02
  4.358364e-02
  5.123659e-02
  1.293830e-01
  3.988039e-01
  7.020110e-01
  7.898916e-01
  6.984212e-01
  3.830170e-01
  1.271860e-01
  6.252631e-02
  9.216888e-02
  3.067280e-01
  8.121012e-01
  9.673436e-01
  9.919619e-01
  9.673989e-01
  8.379895e-01
  4.193289e-01
  1.101513e-01
  4.287740e-02
  5.486403e-02
  1.697215e-01
  5.889941e-01
  9.305767e-01
  9.719775e-01
  9.454395e-01
  8.576814e-01
  6.817204e-01
  4.242112e-01
  2.383771e-01
  1.355243e-01
  8.048269e-02
  6.097163e-02
  5.927066e-02
  6.084459e-02
  6.123279e-02
  6.088246e-02
  6.226934e-02
  6.986662e-02
  9.093910e-02
  1.316165e-01
  1.844153e-01
  2.354057e-01
  2.777922e-01
  3.025890e-01
  2.930077e-01
  2.344711e-01
  1.375643e-01
  6.354379e-02
  4.012183e-02
  5.088094e-02
  1.160821e-01
  3.040616e-01
  6.338391e-01
  8.550343e-01
  9.455763e-01
  9.770728e-01
  9.868883e-01
  9.873291e-01
  9.783359e-01
  9.481942e-01
  8.538641e-01
  5.936620e-01
  2.225884e-01
  8.178843e-02
  8.285796e-02
  2.395614e-01
  7.111042e-01
  9.287279e-01
  9.694874e-01
  9.161072e-01
  6.562198e-01
  2.025221e-01
  7.561011e-02
  9.960316e-02
  3.414932e-01
  8.488116e-01
  9.800646e-01
  9.999000e-01
  9.895007e-01
  9.192968e-01
  6.232687e-01
  1.673387e-01
  5.576471e-02
  6.756154e-02
  2.129370e-01
  6.899288e-01
  8.138046e-01
  8.495878e-01
  7.489888e-01
  4.976507e-01
  2.424625e-01
  1.160716e-01
  7.279633e-02
  7.665444e-02
  1.142657e-01
  1.725277e-01
  2.201503e-01
  2.467136e-01
  2.572665e-01
  2.611585e-01
  2.701854e-01
  3.024128e-01
  3.859745e-01
  5.336674e-01
  6.797545e-01
  7.689181e-01
  8.153601e-01
  8.351881e-01
  8.217404e-01
  7.251224e-01
  4.412796e-01
  1.471892e-01
  5.409042e-02
  3.387196e-02
  4.291539e-02
  9.464138e-02
  2.458801e-01
  5.487027e-01
  8.127413e-01
  9.344930e-01
  9.789900e-01
  9.941185e-01
  9.979437e-01
  9.925891e-01
  9.629776e-01
  8.377041e-01
  4.485670e-01
  1.447381e-01
  1.101100e-01
  2.950397e-01
  7.978518e-01
  9.694803e-01
  9.952183e-01
  9.467104e-01
  7.062576e-01
  2.161573e-01
  7.442707e-02
  9.336420e-02
  3.283959e-01
  8.441231e-01
  9.775494e-01
  9.991937e-01
  9.938493e-01
  9.480805e-01
  7.314177e-01
  2.087932e-01
  6.254626e-02
  6.300202e-02
  1.741609e-01
  5.484583e-01
  3.745760e-01
  3.868589e-01
  2.732685e-01
  1.456966e-01
  7.007598e-02
  4.935136e-02
  8.142400e-02
  1.980930e-01
  4.051099e-01
  6.315322e-01
  7.505379e-01
  7.930785e-01
  8.046340e-01
  8.061812e-01
  8.085237e-01
  8.205712e-01
  8.491575e-01
  8.912476e-01
  9.297691e-01
  9.549459e-01
  9.700943e-01
  9.783876e-01
  9.759610e-01
  9.347057e-01
  7.413166e-01
  2.623334e-01
  7.789570e-02
  3.422981e-02
  2.518051e-02
  3.269258e-02
  7.086341e-02
  1.861547e-01
  4.484353e-01
  7.609344e-01
  9.185879e-01
  9.762113e-01
  9.956996e-01
  9.999000e-01
  9.896601e-01
  9.175848e-01
  6.125041e-01
  1.943898e-01
  1.125881e-01
  2.490712e-01
  6.986695e-01
  9.113393e-01
  9.437530e-01
  8.583328e-01
  5.381931e-01
  1.569786e-01
  5.834422e-02
  7.865282e-02
  2.892741e-01
  8.207951e-01
  9.699414e-01
  9.959124e-01
  9.930688e-01
  9.557522e-01
  7.681230e-01
  2.254219e-01
  6.109670e-02
  4.640060e-02
  9.154400e-02
  2.251489e-01
  1.153461e-01
  1.141856e-01
  8.223222e-02
  5.114307e-02
  4.038827e-02
  7.041222e-02
  2.188888e-01
  5.721993e-01
  8.220994e-01
  9.206873e-01
  9.542414e-01
  9.633210e-01
  9.635450e-01
  9.606738e-01
  9.576093e-01
  9.571034e-01
  9.612315e-01
  9.696162e-01
  9.792202e-01
  9.877635e-01
  9.948585e-01
  9.999000e-01
  9.999000e-01
  9.730429e-01
  8.187376e-01
  3.122554e-01
  8.914583e-02
  3.584944e-02
  2.165918e-02
  1.783798e-02
  2.339427e-02
  5.134563e-02
  1.402206e-01
  3.657429e-01
  7.015821e-01
  8.885421e-01
  9.593195e-01
  9.808429e-01
  9.729618e-01
  8.932247e-01
  5.741101e-01
  1.794645e-01
  8.765238e-02
  1.386051e-01
  3.700343e-01
  6.368100e-01
  6.939118e-01
  5.326359e-01
  2.397178e-01
  7.990698e-02
  3.981415e-02
  6.302893e-02
  2.434017e-01
  7.811030e-01
  9.584457e-01
  9.917791e-01
  9.907584e-01
  9.554144e-01
  7.737011e-01
  2.245943e-01
  5.501928e-02
  3.240766e-02
  4.671275e-02
  8.117901e-02
  4.771876e-02
  4.737999e-02
  4.009788e-02
  3.541013e-02
  4.829775e-02
  1.321546e-01
  4.652608e-01
  8.437563e-01
  9.621447e-01
  9.903669e-01
  9.954298e-01
  9.930350e-01
  9.868536e-01
  9.775207e-01
  9.658272e-01
  9.559735e-01
  9.517779e-01
  9.536029e-01
  9.595316e-01
  9.672552e-01
  9.748241e-01
  9.797732e-01
  9.752738e-01
  9.314021e-01
  7.333190e-01
  2.580278e-01
  7.739169e-02
  3.361900e-02
  2.056952e-02
  1.464914e-02
  1.255985e-02
  1.710791e-02
  3.896298e-02
  1.082962e-01
  2.855209e-01
  5.814952e-01
  7.812814e-01
  8.519274e-01
  8.391504e-01
  6.985811e-01
  3.418340e-01
  1.148213e-01
  5.961805e-02
  6.659149e-02
  1.199442e-01
  1.920320e-01
  2.105103e-01
  1.574438e-01
  8.221419e-02
  4.107138e-02
  2.946942e-02
  5.053614e-02
  1.964230e-01
  7.097506e-01
  9.393966e-01
  9.867286e-01
  9.882523e-01
  9.530056e-01
  7.710923e-01
  2.203404e-01
  4.850035e-02
  2.249485e-02
  2.728618e-02
  3.871036e-02
  3.047069e-02
  3.218401e-02
  3.189317e-02
  3.517427e-02
  5.959264e-02
  1.835882e-01
  6.297282e-01
  9.243094e-01
  9.912918e-01
  9.999000e-01
  9.956367e-01
  9.831912e-01
  9.603327e-01
  9.224745e-01
  8.679458e-01
  8.187983e-01
  7.931531e-01
  7.903194e-01
  8.023100e-01
  8.206364e-01
  8.377220e-01
  8.447781e-01
  8.235266e-01
  7.190168e-01
  4.293666e-01
  1.443288e-01
  5.390019e-02
  2.948224e-02
  2.038170e-02
  1.520666e-02
  1.229661e-02
  1.228670e-02
  1.764637e-02
  3.555943e-02
  8.222175e-02
  1.746591e-01
  2.852709e-01
  3.628369e-01
  3.550490e-01
  2.559681e-01
  1.283775e-01
  6.189408e-02
  4.231567e-02
  4.127934e-02
  5.087988e-02
  6.472881e-02
  6.993167e-02
  6.119905e-02
  4.606909e-02
  3.432188e-02
  2.880020e-02
  4.245413e-02
  1.472931e-01
  5.768418e-01
  9.032200e-01
  9.789484e-01
  9.859234e-01
  9.523487e-01
  7.775591e-01
  2.346286e-01
  4.829471e-02
  1.691405e-02
  1.829066e-02
  2.512422e-02
  2.929514e-02
  3.081182e-02
  3.135591e-02
  3.572482e-02
  5.908937e-02
  1.705028e-01
  5.732411e-01
  8.876034e-01
  9.661336e-01
  9.733565e-01
  9.546053e-01
  9.059774e-01
  8.123021e-01
  6.615182e-01
  4.561862e-01
  3.100451e-01
  2.527674e-01
  2.447478e-01
  2.609188e-01
  2.887113e-01
  3.165575e-01
  3.284711e-01
  3.062229e-01
  2.385169e-01
  1.385551e-01
  6.565406e-02
  3.875854e-02
  3.005999e-02
  2.658768e-02
  2.539529e-02
  2.692393e-02
  3.117626e-02
  3.746866e-02
  4.637873e-02
  6.020931e-02
  8.043357e-02
  1.009038e-01
  1.121388e-01
  1.055649e-01
  8.190899e-02
  5.514993e-02
  3.998627e-02
  3.441829e-02
  3.383154e-02
  3.755500e-02
  4.719911e-02
  6.221590e-02
  7.411529e-02
  7.484028e-02
  6.376657e-02
  4.736637e-02
  4.399355e-02
  1.035476e-01
  3.939626e-01
  8.327219e-01
  9.617912e-01
  9.818452e-01
  9.555774e-01
  8.093873e-01
  3.140773e-01
  7.413482e-02
  2.367361e-02
  1.983577e-02
  2.492319e-02
  5.603217e-02
  4.682111e-02
  3.788413e-02
  3.626471e-02
  4.840892e-02
  1.062602e-01
  3.182379e-01
  6.563769e-01
  7.992420e-01
  8.129058e-01
  7.491178e-01
  5.841661e-01
  3.488547e-01
  1.918471e-01
  1.068119e-01
  6.720838e-02
  5.566265e-02
  5.904596e-02
  7.015030e-02
  8.314475e-02
  9.250978e-02
  9.458977e-02
  8.849437e-02
  7.417300e-02
  5.551220e-02
  4.310879e-02
  4.254315e-02
  5.251984e-02
  6.739560e-02
  8.688371e-02
  1.152420e-01
  1.489439e-01
  1.786050e-01
  1.991221e-01
  2.063803e-01
  1.921467e-01
  1.502781e-01
  9.893210e-02
  6.332315e-02
  4.513102e-02
  3.634478e-02
  3.243728e-02
  3.135305e-02
  3.364621e-02
  4.571068e-02
  8.540706e-02
  1.648158e-01
  2.391450e-01
  2.622669e-01
  2.235676e-01
  1.416322e-01
  7.533237e-02
  8.111246e-02
  2.407562e-01
  6.806807e-01
  9.076450e-01
  9.638479e-01
  9.572450e-01
  8.683137e-01
  5.322319e-01
  1.932880e-01
  8.326031e-02
  6.039322e-02
  5.881647e-02
  2.040244e-01
  1.326717e-01
  6.959039e-02
  4.301933e-02
  4.001738e-02
  5.683968e-02
  1.127649e-01
  2.119890e-01
  2.781987e-01
  2.788809e-01
  2.277883e-01
  1.525376e-01
  8.349760e-02
  4.383193e-02
  2.540451e-02
  2.009600e-02
  2.524178e-02
  4.155594e-02
  6.571841e-02
  8.348345e-02
  8.277703e-02
  6.667552e-02
  5.218829e-02
  4.470439e-02
  4.253170e-02
  5.058840e-02
  8.601464e-02
  1.680160e-01
  2.653421e-01
  3.711915e-01
  5.015066e-01
  6.260051e-01
  7.055113e-01
  7.418530e-01
  7.402011e-01
  6.794185e-01
  5.124730e-01
  2.813303e-01
  1.189160e-01
  5.277593e-02
  3.448174e-02
  3.043705e-02
  3.128176e-02
  4.064836e-02
  8.488679e-02
  2.484479e-01
  5.518092e-01
  7.477469e-01
  7.922410e-01
  7.219497e-01
  4.815407e-01
  1.921320e-01
  8.838372e-02
  1.316392e-01
  3.793015e-01
  7.210722e-01
  8.779703e-01
  9.250253e-01
  9.087793e-01
  7.901532e-01
  5.486721e-01
  3.503928e-01
  2.740990e-01
  2.452476e-01
  6.951107e-01
  4.551046e-01
  1.844876e-01
  6.864319e-02
  3.997605e-02
  3.861190e-02
  4.970697e-02
  6.803006e-02
  7.910581e-02
  7.528775e-02
  6.004932e-02
  4.108864e-02
  2.522903e-02
  1.630528e-02
  1.398525e-02
  2.030872e-02
  4.600226e-02
  1.131510e-01
  2.118621e-01
  2.692834e-01
  2.393030e-01
  1.418903e-01
  7.164333e-02
  4.872738e-02
  5.049454e-02
  8.809802e-02
  2.378175e-01
  5.554647e-01
  7.669663e-01
  8.494739e-01
  8.922400e-01
  9.221314e-01
  9.408081e-01
  9.501338e-01
  9.502993e-01
  9.332256e-01
  8.702952e-01
  6.857675e-01
  3.173038e-01
  9.860995e-02
  4.241880e-02
  3.159806e-02
  3.373633e-02
  5.618191e-02
  1.677529e-01
  5.591590e-01
  8.608691e-01
  9.526717e-01
  9.684179e-01
  9.416292e-01
  8.062100e-01
  4.064686e-01
  1.260216e-01
  7.635641e-02
  1.386603e-01
  3.121003e-01
  5.624070e-01
  7.472822e-01
  8.487496e-01
  8.851890e-01
  8.625784e-01
  8.265014e-01
  8.075107e-01
  7.838453e-01
  9.327591e-01
  7.995191e-01
  4.195251e-01
  1.233960e-01
  4.891430e-02
  3.715124e-02
  3.953085e-02
  4.337642e-02
  4.300684e-02
  3.744674e-02
  2.960477e-02
  2.215900e-02
  1.655512e-02
  1.404410e-02
  1.758468e-02
  4.038088e-02
  1.324273e-01
  3.892269e-01
  6.853042e-01
  7.844058e-01
  7.053806e-01
  3.962870e-01
  1.353628e-01
  6.428137e-02
  6.581898e-02
  1.500827e-01
  4.802653e-01
  8.425795e-01
  9.524783e-01
  9.775250e-01
  9.839064e-01
  9.871322e-01
  9.897715e-01
  9.920599e-01
  9.932586e-01
  9.904751e-01
  9.733103e-01
  8.950331e-01
  6.073880e-01
  1.793399e-01
  5.779447e-02
  3.483170e-02
  3.724842e-02
  7.274471e-02
  2.486554e-01
  7.570623e-01
  9.546709e-01
  9.963556e-01
  9.999000e-01
  9.889732e-01
  9.090165e-01
  5.691930e-01
  1.610163e-01
  5.888927e-02
  5.324190e-02
  8.811976e-02
  1.630606e-01
  2.990503e-01
  5.549357e-01
  8.051203e-01
  9.191006e-01
  9.531768e-01
  9.639466e-01
  9.631494e-01
  9.869996e-01
  9.170338e-01
  6.283337e-01
  1.872918e-01
  7.006588e-02
  5.910545e-02
  6.915994e-02
  7.426841e-02
  6.549359e-02
  4.691286e-02
  3.124380e-02
  2.219167e-02
  1.725004e-02
  1.635810e-02
  2.679954e-02
  8.564888e-02
  3.282759e-01
  7.488920e-01
  9.259804e-01
  9.623260e-01
  9.081430e-01
  6.379900e-01
  2.007355e-01
  7.667795e-02
  7.355982e-02
  1.812763e-01
  5.886663e-01
  9.085222e-01
  9.849031e-01
  9.969634e-01
  9.964839e-01
  9.950531e-01
  9.952104e-01
  9.970024e-01
  9.992551e-01
  9.999000e-01
  9.958928e-01
  9.555579e-01
  7.558517e-01
  2.420647e-01
  7.113596e-02
  3.812148e-02
  3.972084e-02
  7.990855e-02
  2.769346e-01
  7.990966e-01
  9.689542e-01
  9.999000e-01
  9.999000e-01
  9.876886e-01
  9.034276e-01
  5.510746e-01
  1.521834e-01
  4.988247e-02
  3.071441e-02
  3.154360e-02
  4.407611e-02
  8.269239e-02
  2.099034e-01
  5.393749e-01
  8.527238e-01
  9.606682e-01
  9.906839e-01
  9.978711e-01
  9.862264e-01
  9.236250e-01
  6.685375e-01
  2.313032e-01
  1.339809e-01
  1.768159e-01
  2.375408e-01
  2.564379e-01
  2.096729e-01
  1.183434e-01
  5.351444e-02
  2.854810e-02
  1.969523e-02
  1.942846e-02
  4.054017e-02
  1.583823e-01
  5.897229e-01
  9.019761e-01
  9.826886e-01
  9.885024e-01
  9.259466e-01
  6.451615e-01
  1.949764e-01
  7.095306e-02
  6.400735e-02
  1.444878e-01
  4.634462e-01
  8.302448e-01
  9.446896e-01
  9.688115e-01
  9.714628e-01
  9.720752e-01
  9.763324e-01
  9.839991e-01
  9.916392e-01
  9.964081e-01
  9.933740e-01
  9.536227e-01
  7.561816e-01
  2.456611e-01
  7.357072e-02
  4.007491e-02
  4.066523e-02
  7.389305e-02
  2.356755e-01
  7.142462e-01
  9.281502e-01
  9.757681e-01
  9.762115e-01
  9.422446e-01
  7.942601e-01
  3.735491e-01
  1.066772e-01
  4.043966e-02
  2.520689e-02
  2.059128e-02
  1.997580e-02
  2.854481e-02
  7.356830e-02
  2.487840e-01
  6.578403e-01
  9.032305e-01
  9.769146e-01
  9.945578e-01
  9.251428e-01
  8.211543e-01
  5.341862e-01
  2.657325e-01
  3.463186e-01
  5.928995e-01
  7.510980e-01
  7.805003e-01
  6.747107e-01
  3.719714e-01
  1.191583e-01
  4.244511e-02
  2.291451e-02
  2.272554e-02
  5.780554e-02
  2.425132e-01
  7.531934e-01
  9.498541e-01
  9.860703e-01
  9.639328e-01
  8.377086e-01
  4.468304e-01
  1.289812e-01
  5.222834e-02
  4.662706e-02
  8.204364e-02
  2.205751e-01
  5.183389e-01
  7.308380e-01
  8.023227e-01
  8.225109e-01
  8.386009e-01
  8.689999e-01
  9.097423e-01
  9.420839e-01
  9.574465e-01
  9.483263e-01
  8.723464e-01
  5.965531e-01
  1.850331e-01
  6.521698e-02
  4.371249e-02
  4.550333e-02
  6.467148e-02
  1.498926e-01
  4.391889e-01
  7.328728e-01
  8.319417e-01
  8.318541e-01
  7.440106e-01
  4.884506e-01
  1.850701e-01
  6.846015e-02
  3.755960e-02
  2.726896e-02
  2.143394e-02
  1.785985e-02
  1.836013e-02
  3.281601e-02
  1.003026e-01
  3.315244e-01
  7.064634e-01
  8.885514e-01
  9.401968e-01
  6.538150e-01
  4.704391e-01
  2.739813e-01
  2.876326e-01
  6.441115e-01
  8.771893e-01
  9.525413e-01
  9.642659e-01
  9.159053e-01
  6.916692e-01
  2.203818e-01
  6.148651e-02
  2.631587e-02
  2.720073e-02
  8.384656e-02
  3.543599e-01
  8.307545e-01
  9.598390e-01
  9.630790e-01
  8.771152e-01
  5.986588e-01
  2.125525e-01
  6.679115e-02
  3.621298e-02
  3.487090e-02
  4.580699e-02
  7.980057e-02
  1.514877e-01
  2.224899e-01
  2.625345e-01
  2.871264e-01
  3.308171e-01
  4.315152e-01
  5.850372e-01
  7.077243e-01
  7.599479e-01
  7.329364e-01
  5.719639e-01
  2.809140e-01
  1.035614e-01
  6.203923e-02
  6.801818e-02
  8.145511e-02
  8.929931e-02
  1.044563e-01
  1.672644e-01
  2.652489e-01
  3.266065e-01
  3.238140e-01
  2.633257e-01
  1.722978e-01
  1.030705e-01
  7.710690e-02
  6.324392e-02
  4.692362e-02
  3.154027e-02
  2.246049e-02
  1.911297e-02
  2.243605e-02
  4.328036e-02
  1.177446e-01
  3.039821e-01
  5.580442e-01
  6.874267e-01
  1.837984e-01
  1.371751e-01
  1.256901e-01
  2.898952e-01
  7.778661e-01
  9.551504e-01
  9.950301e-01
  9.996460e-01
  9.727129e-01
  8.116623e-01
  2.835048e-01
  7.296246e-02
  2.838912e-02
  3.502708e-02
  1.294716e-01
  5.194023e-01
  8.801899e-01
  9.514719e-01
  8.967662e-01
  6.569006e-01
  2.671907e-01
  8.318489e-02
  3.699561e-02
  3.150590e-02
  3.394529e-02
  3.667127e-02
  4.137683e-02
  5.117352e-02
  6.083105e-02
  6.545262e-02
  6.805534e-02
  7.662147e-02
  1.010312e-01
  1.449697e-01
  1.933199e-01
  2.242132e-01
  2.180260e-01
  1.660473e-01
  9.770563e-02
  7.117354e-02
  1.059522e-01
  1.942734e-01
  2.631884e-01
  2.630513e-01
  1.967364e-01
  1.218052e-01
  9.705804e-02
  9.600785e-02
  9.546670e-02
  9.768743e-02
  1.250731e-01
  1.854811e-01
  2.269200e-01
  2.113089e-01
  1.438163e-01
  7.230093e-02
  3.598374e-02
  2.394449e-02
  2.187945e-02
  2.698764e-02
  4.547846e-02
  8.940962e-02
  1.545570e-01
  1.955779e-01
  5.423146e-02
  5.078903e-02
  8.203014e-02
  2.757738e-01
  8.001380e-01
  9.685225e-01
  9.999000e-01
  9.999000e-01
  9.736344e-01
  8.109788e-01
  2.778771e-01
  6.996005e-02
  2.923595e-02
  5.045941e-02
  2.048714e-01
  6.831751e-01
  9.120391e-01
  9.206828e-01
  7.465851e-01
  3.298165e-01
  9.965087e-02
  4.009273e-02
  3.757247e-02
  5.044269e-02
  5.864573e-02
  5.424599e-02
  4.311270e-02
  3.530936e-02
  3.152423e-02
  2.907541e-02
  2.751616e-02
  2.808516e-02
  3.243214e-02
  4.107231e-02
  5.147086e-02
  5.928160e-02
  6.047291e-02
  5.490960e-02
  5.473881e-02
  9.890692e-02
  2.876950e-01
  6.140005e-01
  7.719772e-01
  7.620213e-01
  5.753883e-01
  2.479597e-01
  8.983620e-02
  5.220142e-02
  5.487651e-02
  1.040070e-01
  2.866065e-01
  5.792742e-01
  7.274535e-01
  7.046498e-01
  5.042055e-01
  2.205644e-01
  7.400715e-02
  3.358321e-02
  2.478844e-02
  2.477023e-02
  2.924947e-02
  3.840176e-02
  5.023156e-02
  5.688949e-02
  3.137572e-02
  3.352024e-02
  6.484304e-02
  2.304639e-01
  7.352096e-01
  9.468269e-01
  9.919435e-01
  9.891055e-01
  9.359380e-01
  7.042939e-01
  2.128029e-01
  5.585722e-02
  3.323669e-02
  8.787927e-02
  3.455890e-01
  7.985135e-01
  9.248545e-01
  8.589177e-01
  5.053763e-01
  1.477133e-01
  4.830477e-02
  4.615881e-02
  9.194299e-02
  1.607179e-01
  1.924938e-01
  1.578834e-01
  9.048308e-02
  4.779592e-02
  3.214011e-02
  2.720483e-02
  2.643468e-02
  2.842234e-02
  3.178384e-02
  3.410315e-02
  3.420630e-02
  3.288180e-02
  3.199938e-02
  3.466381e-02
  5.584554e-02
  1.677213e-01
  5.765731e-01
  8.806353e-01
  9.609616e-01
  9.552107e-01
  8.499206e-01
  4.886795e-01
  1.397134e-01
  5.531134e-02
  6.328363e-02
  1.831847e-01
  5.981402e-01
  8.743477e-01
  9.487383e-01
  9.417341e-01
  8.422114e-01
  5.216334e-01
  1.516764e-01
  4.972114e-02
  2.979294e-02
  2.829439e-02
  3.141311e-02
  3.479734e-02
  3.612539e-02
  3.441132e-02
  3.742133e-02
  3.196085e-02
  4.941252e-02
  1.500853e-01
  5.132381e-01
  8.291820e-01
  9.238049e-01
  9.113220e-01
  7.813754e-01
  4.262189e-01
  1.202889e-01
  4.182871e-02
  5.344919e-02
  1.847231e-01
  5.885540e-01
  8.828139e-01
  9.243255e-01
  7.730189e-01
  2.964931e-01
  7.857782e-02
  4.879895e-02
  1.141272e-01
  3.187769e-01
  5.779904e-01
  6.680205e-01
  5.469766e-01
  2.739883e-01
  9.580130e-02
  4.406115e-02
  3.360388e-02
  3.729285e-02
  5.190816e-02
  7.015897e-02
  7.639104e-02
  6.570312e-02
  4.693565e-02
  3.391575e-02
  3.349276e-02
  6.211672e-02
  2.154853e-01
  7.226876e-01
  9.517367e-01
  9.999000e-01
  9.971549e-01
  9.344957e-01
  6.582016e-01
  1.878310e-01
  6.518892e-02
  7.818344e-02