# vtk DataFile Version 2.0
time_10.vtk
ASCII
DATASET STRUCTURED_GRID
DIMENSIONS    64    64     1
POINTS    4096 float
  0.000000e+00   0.000000e+00   0.000000e+00
  0.000000e+00   1.000000e+00   0.000000e+00
  0.000000e+00   2.000000e+00   0.000000e+00
  0.000000e+00   3.000000e+00   0.000000e+00
  0.000000e+00   4.000000e+00   0.000000e+00
  0.000000e+00   5.000000e+00   0.000000e+00
  0.000000e+00   6.000000e+00   0.000000e+00
  0.000000e+00   7.000000e+00   0.000000e+00
  0.000000e+00   8.000000e+00   0.000000e+00
  0.000000e+00   9.000000e+00   0.000000e+00
  0.000000e+00   1.000000e+01   0.000000e+00
  0.000000e+00   1.100000e+01   0.000000e+00
  0.000000e+00   1.200000e+01   0.000000e+00
  0.000000e+00   1.300000e+01   0.000000e+00
  0.000000e+00   1.400000e+01   0.000000e+00
  0.000000e+00   1.500000e+01   0.000000e+00
  0.000000e+00   1.600000e+01   0.000000e+00
  0.000000e+00   1.700000e+01   0.000000e+00
  0.000000e+00   1.800000e+01   0.000000e+00
  0.000000e+00   1.900000e+01   0.000000e+00
  0.000000e+00   2.000000e+01   0.000000e+00
  0.000000e+00   2.100000e+01   0.000000e+00
  0.000000e+00   2.200000e+01   0.000000e+00
  0.000000e+00   2.300000e+01   0.000000e+00
  0.000000e+00   2.400000e+01   0.000000e+00
  0.000000e+00   2.500000e+01   0.000000e+00
  0.000000e+00   2.600000e+01   0.000000e+00
  0.000000e+00   2.700000e+01   0.000000e+00
  0.000000e+00   2.800000e+01   0.000000e+00
  0.000000e+00   2.900000e+01   0.000000e+00
  0.000000e+00   3.000000e+01   0.000000e+00
  0.000000e+00   3.100000e+01   0.000000e+00
  0.000000e+00   3.200000e+01   0.000000e+00
  0.000000e+00   3.300000e+01   0.000000e+00
  0.000000e+00   3.400000e+01   0.000000e+00
  0.000000e+00   3.500000e+01   0.000000e+00
  0.000000e+00   3.600000e+01   0.000000e+00
  0.000000e+00   3.700000e+01   0.000000e+00
  0.000000e+00   3.800000e+01   0.000000e+00
  0.000000e+00   3.900000e+01   0.000000e+00
  0.000000e+00   4.000000e+01   0.000000e+00
  0.000000e+00   4.100000e+01   0.000000e+00
  0.000000e+00   4.200000e+01   0.000000e+00
  0.000000e+00   4.300000e+01   0.000000e+00
  0.000000e+00   4.400000e+01   0.000000e+00
  0.000000e+00   4.500000e+01   0.000000e+00
  0.000000e+00   4.600000e+01   0.000000e+00
  0.000000e+00   4.700000e+01   0.000000e+00
  0.000000e+00   4.800000e+01   0.000000e+00
  0.000000e+00   4.900000e+01   0.000000e+00
  0.000000e+00   5.000000e+01   0.000000e+00
  0.000000e+00   5.100000e+01   0.000000e+00
  0.000000e+00   5.200000e+01   0.000000e+00
  0.000000e+00   5.300000e+01   0.000000e+00
  0.000000e+00   5.400000e+01   0.000000e+00
  0.000000e+00   5.500000e+01   0.000000e+00
  0.000000e+00   5.600000e+01   0.000000e+00
  0.000000e+00   5.700000e+01   0.000000e+00
  0.000000e+00   5.800000e+01   0.000000e+00
  0.000000e+00   5.900000e+01   0.000000e+00
  0.000000e+00   6.000000e+01   0.000000e+00
  0.000000e+00   6.100000e+01   0.000000e+00
  0.000000e+00   6.200000e+01   0.000000e+00
  0.000000e+00   6.300000e+01   0.000000e+00
  1.000000e+00   0.000000e+00   0.000000e+00
  1.000000e+00   1.000000e+00   0.000000e+00
  1.000000e+00   2.000000e+00   0.000000e+00
  1.000000e+00   3.000000e+00   0.000000e+00
  1.000000e+00   4.000000e+00   0.000000e+00
  1.000000e+00   5.000000e+00   0.000000e+00
  1.000000e+00   6.000000e+00   0.000000e+00
  1.000000e+00   7.000000e+00   0.000000e+00
  1.000000e+00   8.000000e+00   0.000000e+00
  1.000000e+00   9.000000e+00   0.000000e+00
  1.000000e+00   1.000000e+01   0.000000e+00
  1.000000e+00   1.100000e+01   0.000000e+00
  1.000000e+00   1.200000e+01   0.000000e+00
  1.000000e+00   1.300000e+01   0.000000e+00
  1.000000e+00   1.400000e+01   0.000000e+00
  1.000000e+00   1.500000e+01   0.000000e+00
  1.000000e+00   1.600000e+01   0.000000e+00
  1.000000e+00   1.700000e+01   0.000000e+00
  1.000000e+00   1.800000e+01   0.000000e+00
  1.000000e+00   1.900000e+01   0.000000e+00
  1.000000e+00   2.000000e+01   0.000000e+00
  1.000000e+00   2.100000e+01   0.000000e+00
  1.000000e+00   2.200000e+01   0.000000e+00
  1.000000e+00   2.300000e+01   0.000000e+00
  1.000000e+00   2.400000e+01   0.000000e+00
  1.000000e+00   2.500000e+01   0.000000e+00
  1.000000e+00   2.600000e+01   0.000000e+00
  1.000000e+00   2.700000e+01   0.000000e+00
  1.000000e+00   2.800000e+01   0.000000e+00
  1.000000e+00   2.900000e+01   0.000000e+00
  1.000000e+00   3.000000e+01   0.000000e+00
  1.000000e+00   3.100000e+01   0.000000e+00
  1.000000e+00   3.200000e+01   0.000000e+00
  1.000000e+00   3.300000e+01   0.000000e+00
  1.000000e+00   3.400000e+01   0.000000e+00
  1.000000e+00   3.500000e+01   0.000000e+00
  1.000000e+00   3.600000e+01   0.000000e+00
  1.000000e+00   3.700000e+01   0.000000e+00
  1.000000e+00   3.800000e+01   0.000000e+00
  1.000000e+00   3.900000e+01   0.000000e+00
  1.000000e+00   4.000000e+01   0.000000e+00
  1.000000e+00   4.100000e+01   0.000000e+00
  1.000000e+00   4.200000e+01   0.000000e+00
  1.000000e+00   4.300000e+01   0.000000e+00
  1.000000e+00   4.400000e+01   0.000000e+00
  1.000000e+00   4.500000e+01   0.000000e+00
  1.000000e+00   4.600000e+01   0.000000e+00
  1.000000e+00   4.700000e+01   0.000000e+00
  1.000000e+00   4.800000e+01   0.000000e+00
  1.000000e+00   4.900000e+01   0.000000e+00
  1.000000e+00   5.000000e+01   0.000000e+00
  1.000000e+00   5.100000e+01   0.000000e+00
  1.000000e+00   5.200000e+01   0.000000e+00
  1.000000e+00   5.300000e+01   0.000000e+00
  1.000000e+00   5.400000e+01   0.000000e+00
  1.000000e+00   5.500000e+01   0.000000e+00
  1.000000e+00   5.600000e+01   0.000000e+00
  1.000000e+00   5.700000e+01   0.000000e+00
  1.000000e+00   5.800000e+01   0.000000e+00
  1.000000e+00   5.900000e+01   0.000000e+00
  1.000000e+00   6.000000e+01   0.000000e+00
  1.000000e+00   6.100000e+01   0.000000e+00
  1.000000e+00   6.200000e+01   0.000000e+00
  1.000000e+00   6.300000e+01   0.000000e+00
  2.000000e+00   0.000000e+00   0.000000e+00
  2.000000e+00   1.000000e+00   0.000000e+00
  2.000000e+00   2.000000e+00   0.000000e+00
  2.000000e+00   3.000000e+00   0.000000e+00
  2.000000e+00   4.000000e+00   0.000000e+00
  2.000000e+00   5.000000e+00   0.000000e+00
  2.000000e+00   6.000000e+00   0.000000e+00
  2.000000e+00   7.000000e+00   0.000000e+00
  2.000000e+00   8.000000e+00   0.000000e+00
  2.000000e+00   9.000000e+00   0.000000e+00
  2.000000e+00   1.000000e+01   0.000000e+00
  2.000000e+00   1.100000e+01   0.000000e+00
  2.000000e+00   1.200000e+01   0.000000e+00
  2.000000e+00   1.300000e+01   0.000000e+00
  2.000000e+00   1.400000e+01   0.000000e+00
  2.000000e+00   1.500000e+01   0.000000e+00
  2.000000e+00   1.600000e+01   0.000000e+00
  2.000000e+00   1.700000e+01   0.000000e+00
  2.000000e+00   1.800000e+01   0.000000e+00
  2.000000e+00   1.900000e+01   0.000000e+00
  2.000000e+00   2.000000e+01   0.000000e+00
  2.000000e+00   2.100000e+01   0.000000e+00
  2.000000e+00   2.200000e+01   0.000000e+00
  2.000000e+00   2.300000e+01   0.000000e+00
  2.000000e+00   2.400000e+01   0.000000e+00
  2.000000e+00   2.500000e+01   0.000000e+00
  2.000000e+00   2.600000e+01   0.000000e+00
  2.000000e+00   2.700000e+01   0.000000e+00
  2.000000e+00   2.800000e+01   0.000000e+00
  2.000000e+00   2.900000e+01   0.000000e+00
  2.000000e+00   3.000000e+01   0.000000e+00
  2.000000e+00   3.100000e+01   0.000000e+00
  2.000000e+00   3.200000e+01   0.000000e+00
  2.000000e+00   3.300000e+01   0.000000e+00
  2.000000e+00   3.400000e+01   0.000000e+00
  2.000000e+00   3.500000e+01   0.000000e+00
  2.000000e+00   3.600000e+01   0.000000e+00
  2.000000e+00   3.700000e+01   0.000000e+00
  2.000000e+00   3.800000e+01   0.000000e+00
  2.000000e+00   3.900000e+01   0.000000e+00
  2.000000e+00   4.000000e+01   0.000000e+00
  2.000000e+00   4.100000e+01   0.000000e+00
  2.000000e+00   4.200000e+01   0.000000e+00
  2.000000e+00   4.300000e+01   0.000000e+00
  2.000000e+00   4.400000e+01   0.000000e+00
  2.000000e+00   4.500000e+01   0.000000e+00
  2.000000e+00   4.600000e+01   0.000000e+00
  2.000000e+00   4.700000e+01   0.000000e+00
  2.000000e+00   4.800000e+01   0.000000e+00
  2.000000e+00   4.900000e+01   0.000000e+00
  2.000000e+00   5.000000e+01   0.000000e+00
  2.000000e+00   5.100000e+01   0.000000e+00
  2.000000e+00   5.200000e+01   0.000000e+00
  2.000000e+00   5.300000e+01   0.000000e+00
  2.000000e+00   5.400000e+01   0.000000e+00
  2.000000e+00   5.500000e+01   0.000000e+00
  2.000000e+00   5.600000e+01   0.000000e+00
  2.000000e+00   5.700000e+01   0.000000e+00
  2.000000e+00   5.800000e+01   0.000000e+00
  2.000000e+00   5.900000e+01   0.000000e+00
  2.000000e+00   6.000000e+01   0.000000e+00
  2.000000e+00   6.100000e+01   0.000000e+00
  2.000000e+00   6.200000e+01   0.000000e+00
  2.000000e+00   6.300000e+01   0.000000e+00
  3.000000e+00   0.000000e+00   0.000000e+00
  3.000000e+00   1.000000e+00   0.000000e+00
  3.000000e+00   2.000000e+00   0.000000e+00
  3.000000e+00   3.000000e+00   0.000000e+00
  3.000000e+00   4.000000e+00   0.000000e+00
  3.000000e+00   5.000000e+00   0.000000e+00
  3.000000e+00   6.000000e+00   0.000000e+00
  3.000000e+00   7.000000e+00   0.000000e+00
  3.000000e+00   8.000000e+00   0.000000e+00
  3.000000e+00   9.000000e+00   0.000000e+00
  3.000000e+00   1.000000e+01   0.000000e+00
  3.000000e+00   1.100000e+01   0.000000e+00
  3.000000e+00   1.200000e+01   0.000000e+00
  3.000000e+00   1.300000e+01   0.000000e+00
  3.000000e+00   1.400000e+01   0.000000e+00
  3.000000e+00   1.500000e+01   0.000000e+00
  3.000000e+00   1.600000e+01   0.000000e+00
  3.000000e+00   1.700000e+01   0.000000e+00
  3.000000e+00   1.800000e+01   0.000000e+00
  3.000000e+00   1.900000e+01   0.000000e+00
  3.000000e+00   2.000000e+01   0.000000e+00
  3.000000e+00   2.100000e+01   0.000000e+00
  3.000000e+00   2.200000e+01   0.000000e+00
  3.000000e+00   2.300000e+01   0.000000e+00
  3.000000e+00   2.400000e+01   0.000000e+00
  3.000000e+00   2.500000e+01   0.000000e+00
  3.000000e+00   2.600000e+01   0.000000e+00
[...]
POINT_DATA  4096
SCALARS CON float 1
LOOKUP_TABLE default
  6.797876e-02
  2.437651e-01
  7.583853e-01
  9.588413e-01
  9.999000e-01
  9.935836e-01
  9.144375e-01
  5.782442e-01
  1.614168e-01
  5.233915e-02
  3.088812e-02
  2.812361e-02
  3.007973e-02
  3.377857e-02
  3.692742e-02
  3.740190e-02
  3.461596e-02
  2.976233e-02
  2.492578e-02
  2.101597e-02
  1.793662e-02
  1.577165e-02
  1.435323e-02
  1.433495e-02
  2.090156e-02
  5.845592e-02
  2.196141e-01
  6.267558e-01
  8.934591e-01
  9.737283e-01
  9.938286e-01
  9.985640e-01
  9.994486e-01
  9.990596e-01
  9.968648e-01
  9.869998e-01
  9.433782e-01
  7.707561e-01
  3.414056e-01
  9.100824e-02
  3.233073e-02
  2.238810e-02
  2.275265e-02
  2.573021e-02
  2.916282e-02
  3.146332e-02
  3.182136e-02
  3.029555e-02
  2.778319e-02
  2.588945e-02
  2.629765e-02
  3.134884e-02
  4.669403e-02
  7.772724e-02
  1.155589e-01
  1.362300e-01
  1.218784e-01
  8.572718e-02
  5.230879e-02
  3.176822e-02
  2.315177e-02
  2.099416e-02
  2.250897e-02
  3.058250e-02
  5.082866e-02
  1.658627e-01
  5.643291e-01
  8.616364e-01
  9.464243e-01
  9.364261e-01
  8.056301e-01
  4.085701e-01
  1.208807e-01
  5.147918e-02
  4.658732e-02
  6.342401e-02
  9.023111e-02
  1.223320e-01
  1.472257e-01
  1.526348e-01
  1.359991e-01
  1.050472e-01
  7.405256e-02
  4.957990e-02
  3.146167e-02
  2.128352e-02
  1.664207e-02
  1.456477e-02
  1.543185e-02
  2.751337e-02
  8.656264e-02
  3.020773e-01
  7.031677e-01
  9.139770e-01
  9.776883e-01
  9.946216e-01
  9.989802e-01
  9.999000e-01
  9.997057e-01
  9.973365e-01
  9.823517e-01
  9.045178e-01
  5.964629e-01
  1.621789e-01
  4.652844e-02
  2.503575e-02
  2.213883e-02
  2.259632e-02
  2.346692e-02
  2.406922e-02
  2.425107e-02
  2.409761e-02
  2.394858e-02
  2.474697e-02
  2.955409e-02
  4.934991e-02
  1.158912e-01
  2.572611e-01
  4.184998e-01
  5.026936e-01
  4.508553e-01
  3.062092e-01
  1.620278e-01
  6.901157e-02
  3.170181e-02
  2.107873e-02
  2.015114e-02
  2.567638e-02
  3.200478e-02
  7.846564e-02
  2.399464e-01
  5.258298e-01
  7.004496e-01
  6.822885e-01
  4.652655e-01
  1.897024e-01
  7.668373e-02
  6.490450e-02
  1.178826e-01
  2.271175e-01
  3.608266e-01
  5.029738e-01
  6.004623e-01
  6.208261e-01
  5.621219e-01
  4.383168e-01
  3.024008e-01
  1.862330e-01
  9.171380e-02
  4.121796e-02
  2.307130e-02
  1.686923e-02
  1.466574e-02
  1.686998e-02
  3.468041e-02
  1.114076e-01
  3.560898e-01
  7.358080e-01
  9.209356e-01
  9.785923e-01
  9.948504e-01
  9.992477e-01
  9.999000e-01
  9.999000e-01
  9.949158e-01
  9.524334e-01
  7.413274e-01
  2.210267e-01
  5.932432e-02
  2.810401e-02
  2.303911e-02
  2.263797e-02
  2.291430e-02
  2.313649e-02
  2.320279e-02
  2.320283e-02
  2.355085e-02
  2.607556e-02
  3.929473e-02
  1.010229e-01
  3.325253e-01
  6.901947e-01
  8.547178e-01
  8.981545e-01
  8.762015e-01
  7.742441e-01
  5.172789e-01
  2.080969e-01
  6.641174e-02
  2.653081e-02
  1.841741e-02
  2.019822e-02
  2.037850e-02
  3.479932e-02
  7.453977e-02
  1.466977e-01
  2.045416e-01
  2.007802e-01
  1.387471e-01
  7.683872e-02
  6.380760e-02
  1.259288e-01
  3.638593e-01
  6.802260e-01
  8.313552e-01
  8.925489e-01
  9.189358e-01
  9.237618e-01
  9.093712e-01
  8.725691e-01
  7.980808e-01
  6.229960e-01
  3.138733e-01
  1.062753e-01
  3.953681e-02
  2.177167e-02
  1.626722e-02
  1.457601e-02
  1.820374e-02
  4.029221e-02
  1.266513e-01
  3.790257e-01
  7.410732e-01
  9.180658e-01
  9.762024e-01
  9.939291e-01
  9.992212e-01
  9.999000e-01
  9.968912e-01
  9.593408e-01
  7.647299e-01
  2.360889e-01
  6.388300e-02
  2.996103e-02
  2.412536e-02
  2.337854e-02
  2.343291e-02
  2.349285e-02
  2.343316e-02
  2.336014e-02
  2.394153e-02
  2.863303e-02
  5.523469e-02
  1.874115e-01
  6.330336e-01
  9.033246e-01
  9.747162e-01
  9.880695e-01
  9.821114e-01
  9.493087e-01
  8.343544e-01
  5.146045e-01
  1.656621e-01
  4.664878e-02
  1.956193e-02
  1.607779e-02
  1.423907e-02
  1.910862e-02
  2.915611e-02
  4.450570e-02
  5.730294e-02
  5.889460e-02
  5.063815e-02
  4.695668e-02
  7.710419e-02
  2.373509e-01
  6.906079e-01
  9.123786e-01
  9.704808e-01
  9.846843e-01
  9.887814e-01
  9.893222e-01
  9.871383e-01
  9.808251e-01
  9.628093e-01
  8.987004e-01
  6.788891e-01
  2.504488e-01
  7.273740e-02
  2.987844e-02
  1.913389e-02
  1.538412e-02
  1.444588e-02
  1.913984e-02
  4.303340e-02
  1.295418e-01
  3.683460e-01
  7.162304e-01
  8.989254e-01
  9.649170e-01
  9.875190e-01
  9.933178e-01
  9.841856e-01
  9.234561e-01
  6.695755e-01
  1.968844e-01
  5.758528e-02
  2.992803e-02
  2.498962e-02
  2.427566e-02
  2.424806e-02
  2.420865e-02
  2.402583e-02
  2.382327e-02
  2.451795e-02
  3.111533e-02
  6.997892e-02
  2.615596e-01
  7.844063e-01
  9.623782e-01
  9.970314e-01
  9.999000e-01
  9.992583e-01
  9.897061e-01
  9.482179e-01
  7.880973e-01
  3.722813e-01
  9.991666e-02
  2.806910e-02
  1.424823e-02
  1.112080e-02
  1.276058e-02
  1.674090e-02
  2.176443e-02
  2.629579e-02
  2.907699e-02
  3.138286e-02
  4.129830e-02
  9.349327e-02
  3.283351e-01
  8.271238e-01
  9.721197e-01
  9.978358e-01
  9.999000e-01
  9.999000e-01
  9.998368e-01
  9.998120e-01
  9.995304e-01
  9.965303e-01
  9.744248e-01
  8.554541e-01
  4.248739e-01
  1.152674e-01
  3.937799e-02
  2.232289e-02
  1.714745e-02
  1.479317e-02
  1.450539e-02
  1.961145e-02
  4.225195e-02
  1.176969e-01
  3.149373e-01
  6.322547e-01
  8.323909e-01
  9.175992e-01
  9.401235e-01
  9.100212e-01
  7.711404e-01
  4.092839e-01
  1.205172e-01
  4.434806e-02
  2.855528e-02
  2.561244e-02
  2.521477e-02
  2.522518e-02
  2.515856e-02
  2.489020e-02
  2.453844e-02
  2.515465e-02
  3.263297e-02
  7.809190e-02
  2.999189e-01
  8.297823e-01
  9.754301e-01
  9.996792e-01
  9.999000e-01
  9.999000e-01
  9.975959e-01
  9.823878e-01
  9.145792e-01
  6.588982e-01
  2.211812e-01
  5.466891e-02
  1.696139e-02
  1.185862e-02
  9.749870e-03
  1.195517e-02
  1.520932e-02
  1.853216e-02
  2.172232e-02
  2.603224e-02
  3.867062e-02
  9.591199e-02
  3.480068e-01
  8.483462e-01
  9.799505e-01
  9.999000e-01
  9.999000e-01
  9.999000e-01
  9.999000e-01
  9.999000e-01
  9.999000e-01
  9.999000e-01
  9.891550e-01
  9.018538e-01
  5.169699e-01
  1.398532e-01
  4.508510e-02
  2.462389e-02
  1.890728e-02
  1.629033e-02
  1.482846e-02
  1.503621e-02
  1.988181e-02
  3.821116e-02
  9.146340e-02
  2.135700e-01
  4.140840e-01
  6.185702e-01
  6.898101e-01
  6.086168e-01
  3.760907e-01
  1.584639e-01
  6.050994e-02
  3.344559e-02
  2.728144e-02
  2.619049e-02
  2.621854e-02
  2.640093e-02
  2.644538e-02
  2.620449e-02
  2.571986e-02
  2.600802e-02
  3.300121e-02
  7.787949e-02
  2.991369e-01
  8.294950e-01
  9.746220e-01
  9.989090e-01
  9.999000e-01
  9.999000e-01
  9.990321e-01
  9.928229e-01
  9.642996e-01
  8.410518e-01
  4.533992e-01
  1.266700e-01
  3.196705e-02
  2.394900e-02
  1.085302e-02
  9.995289e-03
  1.228694e-02
  1.533817e-02
  1.862070e-02
  2.297152e-02
  3.395199e-02
  8.039291e-02
  2.871357e-01
  7.872291e-01
  9.589305e-01
  9.940359e-01
  9.992091e-01
  9.997640e-01
  9.998018e-01
  9.999000e-01
  9.999000e-01
  9.979604e-01
  9.786620e-01
  8.690689e-01
  4.521677e-01
  1.239222e-01
  4.293119e-02
  2.523533e-02
  2.026368e-02
  1.799498e-02
  1.662041e-02
  1.614878e-02
  1.755374e-02
  2.311666e-02
  3.728421e-02
  6.756771e-02
  1.197178e-01
  1.799438e-01
  2.043051e-01
  1.737420e-01
  1.093485e-01
  5.838605e-02
  3.539148e-02
  2.832321e-02
  2.680153e-02
  2.688028e-02
  2.738593e-02
  2.799362e-02
  2.855063e-02
  2.874631e-02
  2.824960e-02
  2.781428e-02
  3.278895e-02
  7.031069e-02
  2.629689e-01
  7.903830e-01
  9.631718e-01
  9.960142e-01
  9.999000e-01
  9.999000e-01
  9.992013e-01
  9.962011e-01
  9.841411e-01
  9.324694e-01
  7.306392e-01
  3.043173e-01
  8.446780e-02
  7.646320e-02
  2.595578e-02
  1.347060e-02
  1.203101e-02
  1.387752e-02
  1.673233e-02
  2.041653e-02
  2.797182e-02
  5.604275e-02
  1.798169e-01
  5.785251e-01
  8.606644e-01
  9.497362e-01
  9.730802e-01
  9.792632e-01
  9.810155e-01
  9.809656e-01
  9.781331e-01
  9.653890e-01
  9.118636e-01
  7.144585e-01
  2.809207e-01
  8.324617e-02
  3.568112e-02
  2.460855e-02
  2.124060e-02
  1.972937e-02
  1.922329e-02
  2.052459e-02
  2.597161e-02
  3.808241e-02
  5.533023e-02
  7.355139e-02
  9.033463e-02
  9.961563e-02
  9.195117e-02
  6.965177e-02
  4.717437e-02
  3.357953e-02
  2.804234e-02
  2.668224e-02
  2.692208e-02
  2.775465e-02
  2.898620e-02
  3.085699e-02
  3.364417e-02
  3.626995e-02
  3.635725e-02
  3.380172e-02
  3.403668e-02
  5.837039e-02
  1.984384e-01
  6.736431e-01
  9.262572e-01
  9.863247e-01
  9.978325e-01
  9.994389e-01
  9.989769e-01
  9.972382e-01
  9.919541e-01
  9.720071e-01
  8.920725e-01
  6.294587e-01
  2.472273e-01
  2.613272e-01
  9.618569e-02
  3.859766e-02
  2.032588e-02
  1.589075e-02
  1.639407e-02
  1.872972e-02
  2.298564e-02
  3.521689e-02
  8.225124e-02
  2.443865e-01
  5.362930e-01
  7.436043e-01
  8.225082e-01
  8.499991e-01
  8.593274e-01
  8.582124e-01
  8.434154e-01
  7.952877e-01
  6.518643e-01
  3.546403e-01
  1.250770e-01
  4.850648e-02
  2.896172e-02
  2.379804e-02
  2.208029e-02
  2.170650e-02
  2.357999e-02
  3.260245e-02
  6.206794e-02
  1.256927e-01
  2.046103e-01
  2.617293e-01
  2.846123e-01
  2.650023e-01
  2.000926e-01
  1.133133e-01
  5.603553e-02
  3.360500e-02
  2.741910e-02
  2.659652e-02
  2.739492e-02
  2.896848e-02
  3.188544e-02
  3.839485e-02
  5.197351e-02
  6.799752e-02
  7.185043e-02
  5.959782e-02
  4.408336e-02
  4.809613e-02
  1.212587e-01
  4.292102e-01
  8.175024e-01
  9.532099e-01
  9.879329e-01
  9.962348e-01
  9.977656e-01
  9.971657e-01
  9.948143e-01
  9.874417e-01
  9.606533e-01
  8.646664e-01
  6.017194e-01
  6.643019e-01
  3.484671e-01
  1.521964e-01
  6.443001e-02
  3.088834e-02
  2.053207e-02
  1.899169e-02
  2.047114e-02
  2.467964e-02
  3.754201e-02
  7.554974e-02
  1.504998e-01
  2.325957e-01
  2.949046e-01
  3.358957e-01
  3.562923e-01
  3.540784e-01
  3.269631e-01
  2.736894e-01
  1.948161e-01
  1.060070e-01
  5.110473e-02
  3.114914e-02
  2.519266e-02
  2.338282e-02
  2.299242e-02
  2.441014e-02
  3.251569e-02
  6.810641e-02
  1.963797e-01
  4.599395e-01
  6.993439e-01
  7.963853e-01
  8.170447e-01
  7.830802e-01
  6.484530e-01
  3.647708e-01
  1.373996e-01
  5.229387e-02
  3.115450e-02
  2.747828e-02
  2.816228e-02
  3.092813e-02
  3.856282e-02
  6.275134e-02
  1.285469e-01
  2.136973e-01
  2.366299e-01
  1.770451e-01
  9.030245e-02
  5.157091e-02
  6.791967e-02
  1.986057e-01
  5.530889e-01
  8.414423e-01
  9.489579e-01
  9.826626e-01
  9.928164e-01
  9.954728e-01
  9.953224e-01
  9.928982e-01
  9.847803e-01
  9.574995e-01
  8.726712e-01
  9.083849e-01
  7.721250e-01
  5.143464e-01
  2.429210e-01
  9.578429e-02
  3.932531e-02
  2.365538e-02
  2.061137e-02
  2.105794e-02
  2.376819e-02
  3.095110e-02
  4.435996e-02
  5.993533e-02
  7.304524e-02
  8.242227e-02
  8.754704e-02
  8.763226e-02
  8.208386e-02
  7.097352e-02
  5.542968e-02
  3.929499e-02
  2.913533e-02
  2.499703e-02
  2.363689e-02
  2.333536e-02
  2.401203e-02
  2.817486e-02
  4.905552e-02
  1.475795e-01
  4.971803e-01
  8.226812e-01
  9.367449e-01
  9.673966e-01
  9.724946e-01
  9.618090e-01
  9.125210e-01
  7.393411e-01
  3.415771e-01
  9.962566e-02
  4.019969e-02
  2.931521e-02
  2.923934e-02
  3.416708e-02
  5.339666e-02
  1.327227e-01
  3.939721e-01
  6.783681e-01
  7.368652e-01
  5.757625e-01
  2.478576e-01
  8.383577e-02
  4.843333e-02
  7.938387e-02
  2.210281e-01
  5.302479e-01
  8.027181e-01
  9.262154e-01
  9.717726e-01
  9.877561e-01
  9.930152e-01
  9.940560e-01
  9.923906e-01
  9.857600e-01
  9.652488e-01
  9.782014e-01
  9.456420e-01
  8.603000e-01
  6.548089e-01
  3.099518e-01
  1.011824e-01
  3.852213e-02
  2.387880e-02
  2.073610e-02
  2.024513e-02
  2.088406e-02
  2.255775e-02
  2.473094e-02
  2.684006e-02
  2.874430e-02
  3.031307e-02
  3.120858e-02
  3.108522e-02
  2.980114e-02
  2.758348e-02
  2.521324e-02
  2.371514e-02
  2.314719e-02
  2.308214e-02
  2.341018e-02
  2.490929e-02
  3.207494e-02
  6.836088e-02
  2.411246e-01
  7.398584e-01
  9.452499e-01
  9.910369e-01
  9.985707e-01
  9.992900e-01
  9.967450e-01
  9.811180e-01
  9.026024e-01
  5.983835e-01
  1.681381e-01
  5.279767e-02
  3.166605e-02
  3.040030e-02
  3.800789e-02
  7.365255e-02
  2.357129e-01
  7.068495e-01
  9.215435e-01
  9.522127e-01
  8.579315e-01
  4.937231e-01
  1.407884e-01
  4.980264e-02
  3.915254e-02
  7.150473e-02
  1.794475e-01
  4.166119e-01
  7.161676e-01
  8.831915e-01
  9.538031e-01
  9.809577e-01
  9.907189e-01
  9.937724e-01
  9.936617e-01
  9.899904e-01
  9.953912e-01
  9.896022e-01
  9.692107e-01
  8.982833e-01
  6.657061e-01
  2.440716e-01
  7.151573e-02
  3.107985e-02
  2.212469e-02
  1.966582e-02
  1.865947e-02
  1.824367e-02
  1.838611e-02
  1.931924e-02
  2.130309e-02
  2.409442e-02
  2.658260e-02
  2.771701e-02
  2.710871e-02
  2.534803e-02
  2.374548e-02
  2.293489e-02
  2.273169e-02
  2.286495e-02
  2.338838e-02
  2.532173e-02
  3.431195e-02
  8.009552e-02
  2.951511e-01
  8.202726e-01
  9.739457e-01
  9.999000e-01
  9.999000e-01
  9.999000e-01
  9.999000e-01
  9.947087e-01
  9.473764e-01
  7.186450e-01
  2.110806e-01
  6.095953e-02
  3.323233e-02
  3.116016e-02
  4.012872e-02
  8.430341e-02
  2.867397e-01
  8.024785e-01
  9.709712e-01
  9.918628e-01
  9.236689e-01
  6.078554e-01
  1.719890e-01
  5.344532e-02
  2.928049e-02
  3.010156e-02
  5.294891e-02
  1.223767e-01
  2.893212e-01
  5.829386e-01
  8.149208e-01
  9.279768e-01
  9.726162e-01
  9.887766e-01
  9.945107e-01
  9.962756e-01
  9.991438e-01
  9.997201e-01
  9.958453e-01
  9.724422e-01
  8.540615e-01
  4.376721e-01
  1.191649e-01
  4.093086e-02
  2.421283e-02
  1.985458e-02
  1.818373e-02
  1.770666e-02
  1.895517e-02
  2.350701e-02
  3.300441e-02
  4.632174e-02
  5.689129e-02
  5.932694e-02
  5.220262e-02
  3.952892e-02
  2.948629e-02
  2.468076e-02
  2.304889e-02
  2.274183e-02
  2.314575e-02
  2.501945e-02
  3.375247e-02
  7.813039e-02
  2.872504e-01
  8.113585e-01
  9.712014e-01
  9.993888e-01
  9.999000e-01
  9.999000e-01
  9.999000e-01
  9.924854e-01
  9.391448e-01
  6.939318e-01
  2.011049e-01
  5.920513e-02
  3.327438e-02
  3.161726e-02
  3.997654e-02
  7.846072e-02
  2.523091e-01
  7.359115e-01
  9.328354e-01
  9.570090e-01
  8.635031e-01
  5.026335e-01
  1.439708e-01
  4.904609e-02
  2.735434e-02
  2.174070e-02
  2.315413e-02
  3.634980e-02
  7.857008e-02
  1.902320e-01
  4.272124e-01
  7.283694e-01
  8.957817e-01
  9.627103e-01
  9.869129e-01
  9.957666e-01
  9.958873e-01
  9.999000e-01
  9.999000e-01
  9.899659e-01
  9.106518e-01
  5.583735e-01
  1.523601e-01
  4.773568e-02
  2.561683e-02
  2.003607e-02
  1.840437e-02
  1.978671e-02
  2.798682e-02
  5.187782e-02
  1.013425e-01
  1.705877e-01
  2.205778e-01
  2.272149e-01
  1.848419e-01
  1.116204e-01
  5.609920e-02
  3.209122e-02
  2.461892e-02
  2.273743e-02
  2.266281e-02
  2.404128e-02
  3.064013e-02
  6.361915e-02
  2.213438e-01
  7.034365e-01
  9.318124e-01
  9.866011e-01
  9.966616e-01
  9.973586e-01
  9.925504e-01
  9.689189e-01
  8.669291e-01
  5.185422e-01
  1.446720e-01
  4.921393e-02
  3.276286e-02
  3.376534e-02
  4.226339e-02
  6.762054e-02
  1.645081e-01
  4.688123e-01
  7.270720e-01
  7.627299e-01
  5.981347e-01
  2.602285e-01
  8.731919e-02
  4.057540e-02
  2.772009e-02
  2.225556e-02
  1.906175e-02
  1.876967e-02
  2.558001e-02
  5.119612e-02
  1.259277e-01
  3.135436e-01
  6.361738e-01
  8.559338e-01
  9.493118e-01
  9.835771e-01
  9.727575e-01
  9.906213e-01
  9.948052e-01
  9.795328e-01
  8.831516e-01
  5.040905e-01
  1.388300e-01
  4.553905e-02
  2.517862e-02
  2.005538e-02
  2.023114e-02
  2.969556e-02
  6.768019e-02
  1.761184e-01
  3.846356e-01
  6.282445e-01
  7.482544e-01
  7.569974e-01
  6.509159e-01
  3.919723e-01
  1.557532e-01
  5.613330e-02
  2.928333e-02
  2.309917e-02
  2.200562e-02
  2.265992e-02
  2.641688e-02
  4.412710e-02
  1.263388e-01
  4.268446e-01
  7.793440e-01
  9.183811e-01
  9.579270e-01
  9.624620e-01
  9.419782e-01
  8.657388e-01
  6.448779e-01
  2.620057e-01
  8.103962e-02
  3.899353e-02
  3.527991e-02
  4.560376e-02
  6.649890e-02
  9.058588e-02
  1.234623e-01
  1.940283e-01
  2.651339e-01
  2.668290e-01
  1.930799e-01
  9.857937e-02
  5.260475e-02
  3.787531e-02
  3.205564e-02
  2.717114e-02
  2.224553e-02
  1.826153e-02
  1.648589e-02
  1.967448e-02
  3.603360e-02
  8.929774e-02
  2.361371e-01
  5.310895e-01
  7.987697e-01
  9.249189e-01
  8.568152e-01
  9.260676e-01
  9.413877e-01
  8.997250e-01
  7.214523e-01
  3.076890e-01
  9.104202e-02
  3.639879e-02
  2.326815e-02
  2.056415e-02
  2.703065e-02
  6.392887e-02
  2.040210e-01
  5.270656e-01
  8.012450e-01
  9.168469e-01
  9.550559e-01
  9.574636e-01
  9.194374e-01
  7.717889e-01
  3.960404e-01
  1.127816e-01
  3.928865e-02
  2.407329e-02
  2.125490e-02
  2.120698e-02
  2.282932e-02
  2.968965e-02
  5.797460e-02
  1.590590e-01
  3.847376e-01
  6.408172e-01
  7.594259e-01
  7.759845e-01
  7.088201e-01
  5.150943e-01
  2.579647e-01
  9.937046e-02
  4.503293e-02
  3.593085e-02
  4.924901e-02
  9.747418e-02
  1.910529e-01
  2.609327e-01
  2.566213e-01
  1.872301e-01
  1.230217e-01
  9.315729e-02
  7.094562e-02
  5.354552e-02
  4.890541e-02
  5.174329e-02
  5.158872e-02
  4.358453e-02
  3.234954e-02
  2.348932e-02
  1.811032e-02
  1.553859e-02
  1.695638e-02
  2.813023e-02
  6.619075e-02
  1.719533e-01
  4.009381e-01
  6.953673e-01
  4.492908e-01
  6.349461e-01
  6.859685e-01
  5.825587e-01
  3.335677e-01
  1.276340e-01
  4.959675e-02
  2.750855e-02
  2.137196e-02
  2.306131e-02
  4.556410e-02
  1.539189e-01
  4.979086e-01
  8.316993e-01
  9.515330e-01
  9.862157e-01
  9.957339e-01
  9.964650e-01
  9.848827e-01
  9.212622e-01
  6.610100e-01
  1.898183e-01
  5.243898e-02
  2.523722e-02
  2.038764e-02
  1.983267e-02
  2.042249e-02
  2.260484e-02
  3.013689e-02
  5.349592e-02
  1.059282e-01
  1.779949e-01
  2.277678e-01
  2.368467e-01
  2.040255e-01
  1.395340e-01
  7.658526e-02
  4.261851e-02
  3.332258e-02
  4.218122e-02
  9.127759e-02
  2.743004e-01
  6.050188e-01
  7.580387e-01
  7.113518e-01
  4.418237e-01
  1.566281e-01
  6.938273e-02
  5.072015e-02
  5.608252e-02
  8.539775e-02
  1.268669e-01
  1.424593e-01
  1.129802e-01
  6.742731e-02
  3.697388e-02
  2.372321e-02
  1.795192e-02
  1.543371e-02
  1.614341e-02
  2.376299e-02
  4.866121e-02
  1.128669e-01
  2.453239e-01
  1.156160e-01
  1.700143e-01
  1.900790e-01
  1.590226e-01
  9.658257e-02
  4.967428e-02
  2.944363e-02
  2.211383e-02
  2.054329e-02
  2.930139e-02
  8.426391e-02
  3.255252e-01
  7.696621e-01
  9.455168e-01
  9.892239e-01
  9.987216e-01
  9.999000e-01
  9.999000e-01
  9.968355e-01
  9.616296e-01
  7.771204e-01
  2.420167e-01
  6.129610e-02
  2.550451e-02
  1.929925e-02
  1.852932e-02
  1.879372e-02
  1.952748e-02
  2.137484e-02
  2.614186e-02
  3.585892e-02
  4.893526e-02
  5.856150e-02
  6.056120e-02
  5.449777e-02
  4.322398e-02
  3.303109e-02
  2.875391e-02
  3.212947e-02
  5.424849e-02
  1.583275e-01
  5.420254e-01
  8.732487e-01
  9.559473e-01
  9.246563e-01
  7.119227e-01
  2.393568e-01
  8.162882e-02
  5.920563e-02
  9.948654e-02
  2.423934e-01
  4.297062e-01
  5.008154e-01
  3.899998e-01
  1.996798e-01
  7.502429e-02
  3.447852e-02
  2.236949e-02
  1.788544e-02
  1.604772e-02
  1.656087e-02
  2.139889e-02
  3.521001e-02
  6.518418e-02
  3.702775e-02
  4.752587e-02
  5.191129e-02
  4.680563e-02
  3.581805e-02
  2.664496e-02
  2.159838e-02
  1.931249e-02
  2.093018e-02
  3.985628e-02
  1.462273e-01
  5.631379e-01
  8.960301e-01
  9.812282e-01
  9.979713e-01
  9.999000e-01
  9.999000e-01
  9.999000e-01
  9.978025e-01
  9.683399e-01
  8.020219e-01
  2.556296e-01
  6.247155e-02
  2.439631e-02
  1.798906e-02
  1.729211e-02
  1.757037e-02
  1.804233e-02
  1.874744e-02
  2.001927e-02
  2.215626e-02
  2.478863e-02
  2.679613e-02
  2.745385e-02
  2.676354e-02
  2.544725e-02
  2.483435e-02
  2.627546e-02
  3.277049e-02
  6.058743e-02
  1.913304e-01
  6.500134e-01
  9.315427e-01
  9.899420e-01
  9.622121e-01
  7.765673e-01
  2.696611e-01
  9.077486e-02
  8.010973e-02