# vtk DataFile Version 2.0
time_10.vtk
ASCII
DATASET STRUCTURED_GRID
DIMENSIONS    64    64     1
POINTS    4096 float
  0.000000e+00   0.000000e+00   0.000000e+00
  0.000000e+00   1.000000e+00   0.000000e+00
  0.000000e+00   2.000000e+00   0.000000e+00
  0.000000e+00   3.000000e+00   0.000000e+00
  0.000000e+00   4.000000e+00   0.000000e+00
  0.000000e+00   5.000000e+00   0.000000e+00
  0.000000e+00   6.000000e+00   0.000000e+00
  0.000000e+00   7.000000e+00   0.000000e+00
  0.000000e+00   8.000000e+00   0.000000e+00
  0.000000e+00   9.000000e+00   0.000000e+00
  0.000000e+00   1.000000e+01   0.000000e+00
  0.000000e+00   1.100000e+01   0.000000e+00
  0.000000e+00   1.200000e+01   0.000000e+00
  0.000000e+00   1.300000e+01   0.000000e+00
  0.000000e+00   1.400000e+01   0.000000e+00
  0.000000e+00   1.500000e+01   0.000000e+00
  0.000000e+00   1.600000e+01   0.000000e+00
  0.000000e+00   1.700000e+01   0.000000e+00
  0.000000e+00   1.800000e+01   0.000000e+00
  0.000000e+00   1.900000e+01   0.000000e+00
  0.000000e+00   2.000000e+01   0.000000e+00
  0.000000e+00   2.100000e+01   0.000000e+00
  0.000000e+00   2.200000e+01   0.000000e+00
  0.000000e+00   2.300000e+01   0.000000e+00
  0.000000e+00   2.400000e+01   0.000000e+00
  0.000000e+00   2.500000e+01   0.000000e+00
  0.000000e+00   2.600000e+01   0.000000e+00
  0.000000e+00   2.700000e+01   0.000000e+00
  0.000000e+00   2.800000e+01   0.000000e+00
  0.000000e+00   2.900000e+01   0.000000e+00
  0.000000e+00   3.000000e+01   0.000000e+00
  0.000000e+00   3.100000e+01   0.000000e+00
  0.000000e+00   3.200000e+01   0.000000e+00
  0.000000e+00   3.300000e+01   0.000000e+00
  0.000000e+00   3.400000e+01   0.000000e+00
  0.000000e+00   3.500000e+01   0.000000e+00
  0.000000e+00   3.600000e+01   0.000000e+00
  0.000000e+00   3.700000e+01   0.000000e+00
  0.000000e+00   3.800000e+01   0.000000e+00
  0.000000e+00   3.900000e+01   0.000000e+00
  0.000000e+00   4.000000e+01   0.000000e+00
  0.000000e+00   4.100000e+01   0.000000e+00
  0.000000e+00   4.200000e+01   0.000000e+00
  0.000000e+00   4.300000e+01   0.000000e+00
  0.000000e+00   4.400000e+01   0.000000e+00
  0.000000e+00   4.500000e+01   0.000000e+00
  0.000000e+00   4.600000e+01   0.000000e+00
  0.000000e+00   4.700000e+01   0.000000e+00
  0.000000e+00   4.800000e+01   0.000000e+00
  0.000000e+00   4.900000e+01   0.000000e+00
  0.000000e+00   5.000000e+01   0.000000e+00
  0.000000e+00   5.100000e+01   0.000000e+00
  0.000000e+00   5.200000e+01   0.000000e+00
  0.000000e+00   5.300000e+01   0.000000e+00
  0.000000e+00   5.400000e+01   0.000000e+00
  0.000000e+00   5.500000e+01   0.000000e+00
  0.000000e+00   5.600000e+01   0.000000e+00
  0.000000e+00   5.700000e+01   0.000000e+00
  0.000000e+00   5.800000e+01   0.000000e+00
  0.000000e+00   5.900000e+01   0.000000e+00
  0.000000e+00   6.000000e+01   0.000000e+00
  0.000000e+00   6.100000e+01   0.000000e+00
  0.000000e+00   6.200000e+01   0.000000e+00
  0.000000e+00   6.300000e+01   0.000000e+00
  1.000000e+00   0.000000e+00   0.000000e+00
  1.000000e+00   1.000000e+00   0.000000e+00
  1.000000e+00   2.000000e+00   0.000000e+00
  1.000000e+00   3.000000e+00   0.000000e+00
  1.000000e+00   4.000000e+00   0.000000e+00
  1.000000e+00   5.000000e+00   0.000000e+00
  1.000000e+00   6.000000e+00   0.000000e+00
  1.000000e+00   7.000000e+00   0.000000e+00
  1.000000e+00   8.000000e+00   0.000000e+00
  1.000000e+00   9.000000e+00   0.000000e+00
  1.000000e+00   1.000000e+01   0.000000e+00
  1.000000e+00   1.100000e+01   0.000000e+00
  1.000000e+00   1.200000e+01   0.000000e+00
  1.000000e+00   1.300000e+01   0.000000e+00
  1.000000e+00   1.400000e+01   0.000000e+00
  1.000000e+00   1.500000e+01   0.000000e+00
  1.000000e+00   1.600000e+01   0.000000e+00
  1.000000e+00   1.700000e+01   0.000000e+00
  1.000000e+00   1.800000e+01   0.000000e+00
  1.000000e+00   1.900000e+01   0.000000e+00
  1.000000e+00   2.000000e+01   0.000000e+00
  1.000000e+00   2.100000e+01   0.000000e+00
  1.000000e+00   2.200000e+01   0.000000e+00
  1.000000e+00   2.300000e+01   0.000000e+00
  1.000000e+00   2.400000e+01   0.000000e+00
  1.000000e+00   2.500000e+01   0.000000e+00
  1.000000e+00   2.600000e+01   0.000000e+00
  1.000000e+00   2.700000e+01   0.000000e+00
  1.000000e+00   2.800000e+01   0.000000e+00
  1.000000e+00   2.900000e+01   0.000000e+00
  1.000000e+00   3.000000e+01   0.000000e+00
  1.000000e+00   3.100000e+01   0.000000e+00
  1.000000e+00   3.200000e+01   0.000000e+00
  1.000000e+00   3.300000e+01   0.000000e+00
  1.000000e+00   3.400000e+01   0.000000e+00
  1.000000e+00   3.500000e+01   0.000000e+00
  1.000000e+00   3.600000e+01   0.000000e+00
  1.000000e+00   3.700000e+01   0.000000e+00
  1.000000e+00   3.800000e+01   0.000000e+00
  1.000000e+00   3.900000e+01   0.000000e+00
  1.000000e+00   4.000000e+01   0.000000e+00
  1.000000e+00   4.100000e+01   0.000000e+00
  1.000000e+00   4.200000e+01   0.000000e+00
  1.000000e+00   4.300000e+01   0.000000e+00
  1.000000e+00   4.400000e+01   0.000000e+00
  1.000000e+00   4.500000e+01   0.000000e+00
  1.000000e+00   4.600000e+01   0.000000e+00
  1.000000e+00   4.700000e+01   0.000000e+00
  1.000000e+00   4.800000e+01   0.000000e+00
  1.000000e+00   4.900000e+01   0.000000e+00
  1.000000e+00   5.000000e+01   0.000000e+00
  1.000000e+00   5.100000e+01   0.000000e+00
  1.000000e+00   5.200000e+01   0.000000e+00
  1.000000e+00   5.300000e+01   0.000000e+00
  1.000000e+00   5.400000e+01   0.000000e+00
  1.000000e+00   5.500000e+01   0.000000e+00
  1.000000e+00   5.600000e+01   0.000000e+00
  1.000000e+00   5.700000e+01   0.000000e+00
  1.000000e+00   5.800000e+01   0.000000e+00
  1.000000e+00   5.900000e+01   0.000000e+00
  1.000000e+00   6.000000e+01   0.000000e+00
  1.000000e+00   6.100000e+01   0.000000e+00
  1.000000e+00   6.200000e+01   0.000000e+00
  1.000000e+00   6.300000e+01   0.000000e+00
  2.000000e+00   0.000000e+00   0.000000e+00
  2.000000e+00   1.000000e+00   0.000000e+00
  2.000000e+00   2.000000e+00   0.000000e+00
  2.000000e+00   3.000000e+00   0.000000e+00
  2.000000e+00   4.000000e+00   0.000000e+00
  2.000000e+00   5.000000e+00   0.000000e+00
  2.000000e+00   6.000000e+00   0.000000e+00
  2.000000e+00   7.000000e+00   0.000000e+00
  2.000000e+00   8.000000e+00   0.000000e+00
  2.000000e+00   9.000000e+00   0.000000e+00
  2.000000e+00   1.000000e+01   0.000000e+00
  2.000000e+00   1.100000e+01   0.000000e+00
  2.000000e+00   1.200000e+01   0.000000e+00
  2.000000e+00   1.300000e+01   0.000000e+00
  2.000000e+00   1.400000e+01   0.000000e+00
  2.000000e+00   1.500000e+01   0.000000e+00
  2.000000e+00   1.600000e+01   0.000000e+00
  2.000000e+00   1.700000e+01   0.000000e+00
  2.000000e+00   1.800000e+01   0.000000e+00
  2.000000e+00   1.900000e+01   0.000000e+00
  2.000000e+00   2.000000e+01   0.000000e+00
  2.000000e+00   2.100000e+01   0.000000e+00
  2.000000e+00   2.200000e+01   0.000000e+00
  2.000000e+00   2.300000e+01   0.000000e+00
  2.000000e+00   2.400000e+01   0.000000e+00
  2.000000e+00   2.500000e+01   0.000000e+00
  2.000000e+00   2.600000e+01   0.000000e+00
  2.000000e+00   2.700000e+01   0.000000e+00
  2.000000e+00   2.800000e+01   0.000000e+00
  2.000000e+00   2.900000e+01   0.000000e+00
  2.000000e+00   3.000000e+01   0.000000e+00
  2.000000e+00   3.100000e+01   0.000000e+00
  2.000000e+00   3.200000e+01   0.000000e+00
  2.000000e+00   3.300000e+01   0.000000e+00
  2.000000e+00   3.400000e+01   0.000000e+00
  2.000000e+00   3.500000e+01   0.000000e+00
  2.000000e+00   3.600000e+01   0.000000e+00
  2.000000e+00   3.700000e+01   0.000000e+00
  2.000000e+00   3.800000e+01   0.000000e+00
  2.000000e+00   3.900000e+01   0.000000e+00
  2.000000e+00   4.000000e+01   0.000000e+00
  2.000000e+00   4.100000e+01   0.000000e+00
  2.000000e+00   4.200000e+01   0.000000e+00
  2.000000e+00   4.300000e+01   0.000000e+00
  2.000000e+00   4.400000e+01   0.000000e+00
  2.000000e+00   4.500000e+01   0.000000e+00
  2.000000e+00   4.600000e+01   0.000000e+00
  2.000000e+00   4.700000e+01   0.000000e+00
  2.000000e+00   4.800000e+01   0.000000e+00
  2.000000e+00   4.900000e+01   0.000000e+00
  2.000000e+00   5.000000e+01   0.000000e+00
  2.000000e+00   5.100000e+01   0.000000e+00
  2.000000e+00   5.200000e+01   0.000000e+00
  2.000000e+00   5.300000e+01   0.000000e+00
  2.000000e+00   5.400000e+01   0.000000e+00
  2.000000e+00   5.500000e+01   0.000000e+00
  2.000000e+00   5.600000e+01   0.000000e+00
  2.000000e+00   5.700000e+01   0.000000e+00
  2.000000e+00   5.800000e+01   0.000000e+00
  2.000000e+00   5.900000e+01   0.000000e+00
  2.000000e+00   6.000000e+01   0.000000e+00
  2.000000e+00   6.100000e+01   0.000000e+00
  2.000000e+00   6.200000e+01   0.000000e+00
  2.000000e+00   6.300000e+01   0.000000e+00
  3.000000e+00   0.000000e+00   0.000000e+00
  3.000000e+00   1.000000e+00   0.000000e+00
  3.000000e+00   2.000000e+00   0.000000e+00
  3.000000e+00   3.000000e+00   0.000000e+00
  3.000000e+00   4.000000e+00   0.000000e+00
  3.000000e+00   5.000000e+00   0.000000e+00
  3.000000e+00   6.000000e+00   0.000000e+00
  3.000000e+00   7.000000e+00   0.000000e+00
  3.000000e+00   8.000000e+00   0.000000e+00
  3.000000e+00   9.000000e+00   0.000000e+00
  3.000000e+00   1.000000e+01   0.000000e+00
  3.000000e+00   1.100000e+01   0.000000e+00
  3.000000e+00   1.200000e+01   0.000000e+00
  3.000000e+00   1.300000e+01   0.000000e+00
  3.000000e+00   1.400000e+01   0.000000e+00
  3.000000e+00   1.500000e+01   0.000000e+00
  3.000000e+00   1.600000e+01   0.000000e+00
  3.000000e+00   1.700000e+01   0.000000e+00
  3.000000e+00   1.800000e+01   0.000000e+00
  3.000000e+00   1.900000e+01   0.000000e+00
  3.000000e+00   2.000000e+01   0.000000e+00
  3.000000e+00   2.100000e+01   0.000000e+00
  3.000000e+00   2.200000e+01   0.000000e+00
  3.000000e+00   2.300000e+01   0.000000e+00
  3.000000e+00   2.400000e+01   0.000000e+00
  3.000000e+00   2.500000e+01   0.000000e+00
  3.000000e+00   2.600000e+01   0.000000e+00
[...]
POINT_DATA  4096
SCALARS CON float 1
LOOKUP_TABLE default
  7.806187e-01
  9.568096e-01
  9.950806e-01
  9.999000e-01
  9.968156e-01
  9.855628e-01
  9.497578e-01
  8.228247e-01
  4.606546e-01
  1.292064e-01
  4.139899e-02
  2.240540e-02
  1.801271e-02
  1.756949e-02
  2.000799e-02
  2.623478e-02
  3.587860e-02
  4.468135e-02
  4.775049e-02
  4.554205e-02
  4.226833e-02
  3.897695e-02
  3.495474e-02
  3.052816e-02
  2.929762e-02
  4.391046e-02
  1.155804e-01
  3.417803e-01
  7.017087e-01
  8.922904e-01
  9.497006e-01
  9.493642e-01
  9.175336e-01
  8.654146e-01
  8.104184e-01
  7.443551e-01
  6.192833e-01
  4.083317e-01
  2.183030e-01
  9.781843e-02
  4.421647e-02
  2.812600e-02
  2.824580e-02
  4.457961e-02
  9.504792e-02
  1.752085e-01
  2.157299e-01
  1.800764e-01
  1.015951e-01
  5.563104e-02
  4.517608e-02
  7.018691e-02
  2.053178e-01
  6.107046e-01
  8.525679e-01
  9.058364e-01
  8.505360e-01
  6.343194e-01
  2.525773e-01
  7.609456e-02
  3.609842e-02
  3.851874e-02
  8.570468e-02
  2.965770e-01
  8.576451e-01
  9.808709e-01
  9.987576e-01
  9.917298e-01
  9.705288e-01
  9.208846e-01
  7.953237e-01
  5.154420e-01
  1.984878e-01
  6.581279e-02
  3.227942e-02
  2.447373e-02
  2.220449e-02
  2.178248e-02
  2.372059e-02
  2.973338e-02
  4.086665e-02
  5.513131e-02
  6.912189e-02
  8.072107e-02
  8.808413e-02
  8.799512e-02
  7.785345e-02
  5.922312e-02
  4.001728e-02
  3.258414e-02
  4.799431e-02
  1.215482e-01
  3.359821e-01
  6.825254e-01
  8.821937e-01
  9.518943e-01
  9.693396e-01
  9.685480e-01
  9.617501e-01
  9.484586e-01
  9.150975e-01
  8.315027e-01
  6.372806e-01
  3.102298e-01
  1.067436e-01
  4.704073e-02
  4.675384e-02
  1.045881e-01
  3.129835e-01
  6.110105e-01
  7.158223e-01
  5.985070e-01
  2.886684e-01
  1.015988e-01
  5.787548e-02
  9.410598e-02
  3.149396e-01
  8.052256e-01
  9.616586e-01
  9.883400e-01
  9.688397e-01
  8.631323e-01
  5.063439e-01
  1.385864e-01
  4.871641e-02
  4.648774e-02
  1.106872e-01
  3.865247e-01
  8.101215e-01
  9.491213e-01
  9.643848e-01
  9.333815e-01
  8.499906e-01
  6.794510e-01
  3.980741e-01
  1.846669e-01
  8.663468e-02
  6.020509e-02
  5.821378e-02
  5.984747e-02
  6.072971e-02
  6.289500e-02
  7.177703e-02
  9.567623e-02
  1.400337e-01
  1.955567e-01
  2.500229e-01
  2.974962e-01
  3.291510e-01
  3.296777e-01
  2.856328e-01
  1.980065e-01
  9.839491e-02
  4.555049e-02
  3.193245e-02
  4.563812e-02
  1.115547e-01
  3.026216e-01
  6.416606e-01
  8.645084e-01
  9.514591e-01
  9.803674e-01
  9.895695e-01
  9.913235e-01
  9.863810e-01
  9.664786e-01
  8.970789e-01
  6.713994e-01
  2.569910e-01
  8.823497e-02
  7.713140e-02
  2.058954e-01
  6.432492e-01
  8.977920e-01
  9.488803e-01
  8.770930e-01
  5.610720e-01
  1.701746e-01
  7.225861e-02
  1.102435e-01
  3.824595e-01
  8.619255e-01
  9.821375e-01
  9.999000e-01
  9.936462e-01
  9.406022e-01
  7.037290e-01
  2.038094e-01
  6.027016e-02
  4.755563e-02
  1.046391e-01
  3.500530e-01
  5.519577e-01
  7.568584e-01
  7.780479e-01
  6.768918e-01
  4.518764e-01
  2.419349e-01
  1.286114e-01
  9.849173e-02
  1.279366e-01
  1.848906e-01
  2.296878e-01
  2.536547e-01
  2.649150e-01
  2.784850e-01
  3.170804e-01
  4.116126e-01
  5.652815e-01
  7.022167e-01
  7.825499e-01
  8.253151e-01
  8.464010e-01
  8.458671e-01
  8.014181e-01
  6.371907e-01
  3.003380e-01
  9.418728e-02
  3.744962e-02
  2.683175e-02
  3.897930e-02
  9.426743e-02
  2.577791e-01
  5.815358e-01
  8.366004e-01
  9.451676e-01
  9.832945e-01
  9.962862e-01
  9.999000e-01
  9.974529e-01
  9.738761e-01
  8.576916e-01
  4.537040e-01
  1.435788e-01
  1.028389e-01
  2.639843e-01
  7.607569e-01
  9.578556e-01
  9.887351e-01
  9.291315e-01
  6.436974e-01
  1.927170e-01
  7.482294e-02
  1.110840e-01
  3.935513e-01
  8.690545e-01
  9.829310e-01
  9.999000e-01
  9.975508e-01
  9.623413e-01
  7.815849e-01
  2.422069e-01
  6.477202e-02
  4.081619e-02
  7.197107e-02
  2.064861e-01
  1.736504e-01
  2.474653e-01
  2.505976e-01
  1.960483e-01
  1.232929e-01
  7.968965e-02
  9.268526e-02
  2.088961e-01
  4.367594e-01
  6.623719e-01
  7.675514e-01
  8.021789e-01
  8.113966e-01
  8.162249e-01
  8.294375e-01
  8.589764e-01
  9.002836e-01
  9.356473e-01
  9.580010e-01
  9.712940e-01
  9.789322e-01
  9.804908e-01
  9.671179e-01
  8.898536e-01
  5.957847e-01
  1.728552e-01
  5.183479e-02
  2.502127e-02
  2.073069e-02
  3.118951e-02
  7.576991e-02
  2.105771e-01
  5.050398e-01
  7.966563e-01
  9.314452e-01
  9.797501e-01
  9.962870e-01
  9.999000e-01
  9.880567e-01
  9.041353e-01
  5.506873e-01
  1.720439e-01
  1.026617e-01
  2.255877e-01
  6.619215e-01
  8.976210e-01
  9.356067e-01
  8.398252e-01
  4.895058e-01
  1.450720e-01
  6.198563e-02
  9.876613e-02
  3.611867e-01
  8.561427e-01
  9.791605e-01
  9.991762e-01
  9.970875e-01
  9.662319e-01
  8.017220e-01
  2.537874e-01
  6.235210e-02
  3.134613e-02
  4.113671e-02
  8.225572e-02
  5.597807e-02
  7.022812e-02
  6.955163e-02
  5.810595e-02
  4.889531e-02
  6.623973e-02
  1.805921e-01
  5.425293e-01
  8.257843e-01
  9.288776e-01
  9.597878e-01
  9.668365e-01
  9.663045e-01
  9.641184e-01
  9.634927e-01
  9.666106e-01
  9.735108e-01
  9.815354e-01
  9.887209e-01
  9.946291e-01
  9.988507e-01
  9.999000e-01
  9.955056e-01
  9.468521e-01
  7.136093e-01
  2.148909e-01
  6.039666e-02
  2.610363e-02
  1.707316e-02
  1.568762e-02
  2.419717e-02
  5.927288e-02
  1.662636e-01
  4.168513e-01
  7.327232e-01
  8.947139e-01
  9.559449e-01
  9.726649e-01
  9.555974e-01
  8.429372e-01
  4.548818e-01
  1.429888e-01
  7.769887e-02
  1.259195e-01
  3.368660e-01
  6.055434e-01
  6.700600e-01
  5.047010e-01
  2.213737e-01
  7.807428e-02
  4.519394e-02
  8.202506e-02
  3.100479e-01
  8.301973e-01
  9.723156e-01
  9.968973e-01
  9.951370e-01
  9.646869e-01
  8.032479e-01
  2.543802e-01
  5.726106e-02
  2.298846e-02
  2.440528e-02
  3.653403e-02
  2.756837e-02
  3.199425e-02
  3.315203e-02
  3.371329e-02
  4.254755e-02
  9.313443e-02
  3.152776e-01
  7.913220e-01
  9.560925e-01
  9.921869e-01
  9.980373e-01
  9.958482e-01
  9.906104e-01
  9.836460e-01
  9.754970e-01
  9.677935e-01
  9.640276e-01
  9.655499e-01
  9.708332e-01
  9.774673e-01
  9.830601e-01
  9.845318e-01
  9.731550e-01
  9.035496e-01
  6.246633e-01
  1.839932e-01
  5.522761e-02
  2.568259e-02
  1.669644e-02
  1.271695e-02
  1.232576e-02
  1.937135e-02
  4.626586e-02
  1.242953e-01
  3.043990e-01
  5.802332e-01
  7.583656e-01
  8.130655e-01
  7.747734e-01
  5.805647e-01
  2.417630e-01
  8.795773e-02
  5.321313e-02
  6.271775e-02
  1.121291e-01
  1.824564e-01
  2.027279e-01
  1.517060e-01
  8.047600e-02
  4.313719e-02
  3.492703e-02
  6.687117e-02
  2.542716e-01
  7.823130e-01
  9.594063e-01
  9.930382e-01
  9.927727e-01
  9.631150e-01
  8.079111e-01
  2.701520e-01
  5.669935e-02
  1.715125e-02
  1.534398e-02
  2.095255e-02
  1.998679e-02
  2.378082e-02
  2.666867e-02
  3.109367e-02
  4.630029e-02
  1.140284e-01
  3.937864e-01
  8.599724e-01
  9.815209e-01
  9.999000e-01
  9.986296e-01
  9.894810e-01
  9.731499e-01
  9.485642e-01
  9.126440e-01
  8.689159e-01
  8.374740e-01
  8.290424e-01
  8.385714e-01
  8.557160e-01
  8.697255e-01
  8.686619e-01
  8.296817e-01
  6.827652e-01
  3.414559e-01
  1.076061e-01
  4.195161e-02
  2.457183e-02
  1.810221e-02
  1.471852e-02
  1.327390e-02
  1.444262e-02
  2.108130e-02
  4.049060e-02
  8.625305e-02
  1.667776e-01
  2.471300e-01
  2.872180e-01
  2.650398e-01
  1.837375e-01
  9.206382e-02
  5.064317e-02
  3.930335e-02
  4.037051e-02
  5.013023e-02
  6.424849e-02
  7.026602e-02
  6.219970e-02
  4.768720e-02
  3.659239e-02
  3.289448e-02
  5.464762e-02
  1.928762e-01
  6.756087e-01
  9.283057e-01
  9.849198e-01
  9.900573e-01
  9.650088e-01
  8.330225e-01
  3.464399e-01
  7.612814e-02
  1.814284e-02
  1.150960e-02
  1.514417e-02
  2.120703e-02
  2.368954e-02
  2.624659e-02
  3.092949e-02
  4.516492e-02
  1.033540e-01
  3.395963e-01
  7.989591e-01
  9.474146e-01
  9.723857e-01
  9.627625e-01
  9.292545e-01
  8.628012e-01
  7.632377e-01
  6.194395e-01
  4.498403e-01
  3.420042e-01
  3.102077e-01
  3.254467e-01
  3.628912e-01
  3.959553e-01
  3.939877e-01
  3.378912e-01
  2.341768e-01
  1.187482e-01
  5.520766e-02
  3.400548e-02
  2.811807e-02
  2.785210e-02
  3.086816e-02
  3.556944e-02
  4.044943e-02
  4.590114e-02
  5.362229e-02
  6.548206e-02
  8.060762e-02
  9.084157e-02
  9.040436e-02
  7.993620e-02
  6.197794e-02
  4.446776e-02
  3.575263e-02
  3.308177e-02
  3.380230e-02
  3.840718e-02
  4.922243e-02
  6.551778e-02
  7.734816e-02
  7.646202e-02
  6.334443e-02
  4.690338e-02
  4.888814e-02
  1.270102e-01
  4.640281e-01
  8.464429e-01
  9.619609e-01
  9.838543e-01
  9.702625e-01
  8.837020e-01
  5.388977e-01
  1.573676e-01
  4.398275e-02
  2.040779e-02
  1.865094e-02
  4.506271e-02
  3.563697e-02
  3.051069e-02
  3.098321e-02
  3.913843e-02
  7.107331e-02
  1.941973e-01
  5.252650e-01
  7.534567e-01
  8.076569e-01
  7.744300e-01
  6.568746e-01
  4.442681e-01
  2.614743e-01
  1.594486e-01
  1.021795e-01
  7.669765e-02
  7.373748e-02
  8.377765e-02
  9.846242e-02
  1.093405e-01
  1.095261e-01
  9.687803e-02
  7.484350e-02
  5.222706e-02
  3.997358e-02
  3.970231e-02
  5.317308e-02
  8.068145e-02
  1.208494e-01
  1.626292e-01
  1.937329e-01
  2.140271e-01
  2.259664e-01
  2.268484e-01
  2.068355e-01
  1.575267e-01
  9.717454e-02
  5.749382e-02
  3.970883e-02
  3.286535e-02
  3.069016e-02
  3.078039e-02
  3.408170e-02
  4.779449e-02
  9.137429e-02
  1.754382e-01
  2.474215e-01
  2.613097e-01
  2.101544e-01
  1.222187e-01
  6.557254e-02
  8.076658e-02
  2.432166e-01
  6.468435e-01
  8.865953e-01
  9.588140e-01
  9.694118e-01
  9.331251e-01
  7.705510e-01
  3.999233e-01
  1.682854e-01
  8.480115e-02
  5.723785e-02
  1.710503e-01
  9.670869e-02
  5.098749e-02
  3.469412e-02
  3.369511e-02
  4.441276e-02
  7.998429e-02
  1.649592e-01
  2.464985e-01
  2.704473e-01
  2.391383e-01
  1.759292e-01
  1.063170e-01
  5.876323e-02
  3.514910e-02
  2.566610e-02
  2.684401e-02
  3.806323e-02
  5.576293e-02
  6.855031e-02
  6.757774e-02
  5.774169e-02
  4.929529e-02
  4.348686e-02
  4.061836e-02
  4.564036e-02
  7.464586e-02
  1.651081e-01
  3.150017e-01
  5.009803e-01
  6.537461e-01
  7.333519e-01
  7.679076e-01
  7.797739e-01
  7.695178e-01
  7.109142e-01
  5.466735e-01
  2.969108e-01
  1.208605e-01
  5.162581e-02
  3.325705e-02
  2.966305e-02
  3.109445e-02
  4.154568e-02
  8.942281e-02
  2.656558e-01
  5.779144e-01
  7.586676e-01
  7.865175e-01
  6.842742e-01
  3.984785e-01
  1.412873e-01
  6.963448e-02
  1.093812e-01
  3.074244e-01
  6.503330e-01
  8.550615e-01
  9.338162e-01
  9.497243e-01
  9.104623e-01
  7.812297e-01
  5.733520e-01
  3.696541e-01
  2.515762e-01
  6.103618e-01
  3.336810e-01
  1.264194e-01
  5.074113e-02
  3.275002e-02
  3.265887e-02
  4.092582e-02
  5.683253e-02
  7.042549e-02
  7.156587e-02
  6.077695e-02
  4.425912e-02
  2.839092e-02
  1.823539e-02
  1.477846e-02
  1.906325e-02
  3.807199e-02
  8.492248e-02
  1.531960e-01
  1.878711e-01
  1.537401e-01
  8.923290e-02
  5.434920e-02
  4.329698e-02
  4.494644e-02
  6.877301e-02
  1.752411e-01
  4.986207e-01
  7.753044e-01
  8.860824e-01
  9.310005e-01
  9.497576e-01
  9.576937e-01
  9.606950e-01
  9.583348e-01
  9.418882e-01
  8.817105e-01
  6.980112e-01
  3.203865e-01
  9.802876e-02
  4.175133e-02
  3.111758e-02
  3.355052e-02
  5.687096e-02
  1.725292e-01
  5.768647e-01
  8.713432e-01
  9.565945e-01
  9.668459e-01
  9.249080e-01
  7.358870e-01
  2.811720e-01
  8.786041e-02
  5.744839e-02
  1.043409e-01
  2.526478e-01
  5.245683e-01
  7.720542e-01
  8.993184e-01
  9.418262e-01
  9.333788e-01
  8.938708e-01
  8.385397e-01
  7.656131e-01
  8.998101e-01
  7.134353e-01
  3.109767e-01
  9.273772e-02
  3.989023e-02
  3.223900e-02
  3.456554e-02
  3.759674e-02
  3.739490e-02
  3.323151e-02
  2.704730e-02
  2.068832e-02
  1.557266e-02
  1.319130e-02
  1.630223e-02
  3.542612e-02
  1.073498e-01
  2.969032e-01
  5.477868e-01
  6.395696e-01
  5.001133e-01
  2.252397e-01
  8.809722e-02
  5.219323e-02
  5.341252e-02
  1.000196e-01
  3.084407e-01
  7.745677e-01
  9.449564e-01
  9.839772e-01
  9.921751e-01
  9.940364e-01
  9.947349e-01
  9.953315e-01
  9.952978e-01
  9.923400e-01
  9.754816e-01
  8.958527e-01
  5.988847e-01
  1.737389e-01
  5.604855e-02
  3.401742e-02
  3.648686e-02
  7.141801e-02
  2.456385e-01
  7.579527e-01
  9.564916e-01
  9.977950e-01
  9.999000e-01
  9.814336e-01
  8.608691e-01
  3.991561e-01
  1.109638e-01
  4.457658e-02
  4.102874e-02
  7.293399e-02
  1.639688e-01
  3.683807e-01
  6.852337e-01
  8.820688e-01
  9.528217e-01
  9.697911e-01
  9.685673e-01
  9.544762e-01
  9.747138e-01
  8.835130e-01
  5.545647e-01
  1.695144e-01
  6.894047e-02
  5.828295e-02
  6.367853e-02
  6.337333e-02
  5.215615e-02
  3.647193e-02
  2.520917e-02
  1.858544e-02
  1.486995e-02
  1.470746e-02
  2.514756e-02
  7.967610e-02
  2.970603e-01
  6.981783e-01
  8.895020e-01
  9.246453e-01
  8.253806e-01
  4.526238e-01
  1.411835e-01
  6.251948e-02
  5.809306e-02
  1.143966e-01
  3.663202e-01
  8.410348e-01
  9.751573e-01
  9.986118e-01
  9.999000e-01
  9.992828e-01
  9.991507e-01
  9.996281e-01
  9.999000e-01
  9.999000e-01
  9.952015e-01
  9.506176e-01
  7.341006e-01
  2.257921e-01
  6.671277e-02
  3.642064e-02
  3.793720e-02
  7.539339e-02
  2.617369e-01
  7.839549e-01
  9.653137e-01
  9.999000e-01
  9.999000e-01
  9.839882e-01
  8.697101e-01
  4.123046e-01
  1.131584e-01
  4.089812e-02
  2.583085e-02
  2.726334e-02
  4.645645e-02
  1.119367e-01
  3.044930e-01
  6.672269e-01
  8.930359e-01
  9.686122e-01
  9.901516e-01
  9.930237e-01
  9.789394e-01
  9.195107e-01
  6.928132e-01
  2.912334e-01
  1.841214e-01
  2.036368e-01
  2.324246e-01
  2.217379e-01
  1.591025e-01
  8.104561e-02
  3.806516e-02
  2.194421e-02
  1.618719e-02
  1.752372e-02
  4.021722e-02
  1.592583e-01
  5.796307e-01
  8.931970e-01
  9.788837e-01
  9.848770e-01
  9.065285e-01
  5.585113e-01
  1.645372e-01
  6.409840e-02
  5.410339e-02
  9.736805e-02
  2.964429e-01
  7.549693e-01
  9.326335e-01
  9.732290e-01
  9.815396e-01
  9.853855e-01
  9.892610e-01
  9.929662e-01
  9.959668e-01
  9.973417e-01
  9.903842e-01
  9.396509e-01
  7.092434e-01
  2.171446e-01
  6.615060e-02
  3.730822e-02
  3.785451e-02
  6.698704e-02
  2.115362e-01
  6.725966e-01
  9.138772e-01
  9.725890e-01
  9.768899e-01
  9.428104e-01
  7.775067e-01
  3.126917e-01
  9.076666e-02
  3.694799e-02
  2.310143e-02
  1.852862e-02
  1.987952e-02
  3.596951e-02
  1.017710e-01
  3.134628e-01
  6.936290e-01
  9.021882e-01
  9.699009e-01
  9.874700e-01
  9.116448e-01
  8.428612e-01
  6.675051e-01
  4.700158e-01
  5.475496e-01
  6.914732e-01
  7.608443e-01
  7.324491e-01
  5.513341e-01
  2.476332e-01
  7.860614e-02
  3.032248e-02
  1.810901e-02
  2.104836e-02
  6.147277e-02
  2.618549e-01
  7.644142e-01
  9.541161e-01
  9.924847e-01
  9.790374e-01
  8.703264e-01
  4.656605e-01
  1.334473e-01
  5.404135e-02
  4.453943e-02
  6.550109e-02
  1.603401e-01
  4.458607e-01
  7.195833e-01
  8.274572e-01
  8.727412e-01
  9.064211e-01
  9.334968e-01
  9.515668e-01
  9.616456e-01
  9.622714e-01
  9.388967e-01
  8.335616e-01
  5.075034e-01
  1.522862e-01
  5.669447e-02
  4.002633e-02
  4.177280e-02
  5.743926e-02
  1.277238e-01
  3.778330e-01
  6.943184e-01
  8.195210e-01
  8.325783e-01
  7.527573e-01
  4.941222e-01
  1.765601e-01
  6.611441e-02
  3.658694e-02
  2.571908e-02
  1.955715e-02
  1.643203e-02
  1.869511e-02
  3.725331e-02
  1.099702e-01
  3.254789e-01
  6.666934e-01
  8.515517e-01
  9.146406e-01
  6.009761e-01
  4.954607e-01
  3.950569e-01
  4.892017e-01
  7.848515e-01
  9.166652e-01
  9.560576e-01
  9.490010e-01
  8.618448e-01
  5.527011e-01
  1.552414e-01
  4.391395e-02
  2.057970e-02
  2.655306e-02
  9.529292e-02
  4.050699e-01
  8.514682e-01
  9.696314e-01
  9.813301e-01
  9.311514e-01
  7.218094e-01
  2.752300e-01
  8.259816e-02
  4.125445e-02
  3.658579e-02
  4.341523e-02
  6.907650e-02
  1.389649e-01
  2.351585e-01
  3.260297e-01
  4.326437e-01
  5.642950e-01
  6.784803e-01
  7.487384e-01
  7.821307e-01
  7.791598e-01
  7.074504e-01
  4.950970e-01
  2.203097e-01
  8.399038e-02
  5.484005e-02
  6.251414e-02
  7.528318e-02
  8.173787e-02
  9.257624e-02
  1.439417e-01
  2.394777e-01
  3.108692e-01
  3.231037e-01
  2.715687e-01
  1.785302e-01
  1.034465e-01
  7.540363e-02
  5.946380e-02
  4.228694e-02
  2.798957e-02
  1.994325e-02
  1.726381e-02
  2.106553e-02
  4.062806e-02
  1.023215e-01
  2.420824e-01
  4.407596e-01
  5.908397e-01
  1.584696e-01
  1.369729e-01
  1.593037e-01
  3.836641e-01
  8.283774e-01
  9.656944e-01
  9.960888e-01
  9.959149e-01
  9.523098e-01
  7.361244e-01
  2.178836e-01
  5.465273e-02
  2.298518e-02
  3.653012e-02
  1.510140e-01
  5.882196e-01
  9.027920e-01
  9.681388e-01
  9.441886e-01
  7.979560e-01
  4.182652e-01
  1.282492e-01
  4.870773e-02
  3.564649e-02
  3.596592e-02
  3.738705e-02
  4.065186e-02
  5.043997e-02
  6.487629e-02
  8.030940e-02
  1.019475e-01
  1.348936e-01
  1.738278e-01
  2.095246e-01
  2.343677e-01
  2.378256e-01
  2.071053e-01
  1.418752e-01
  8.024152e-02
  6.233432e-02
  9.724117e-02
  1.810263e-01
  2.479527e-01
  2.499662e-01
  1.889409e-01
  1.165365e-01
  9.125690e-02
  9.228622e-02
  9.535235e-02
  9.931325e-02
  1.237199e-01
  1.775009e-01
  2.125492e-01
  1.902072e-01
  1.223739e-01
  6.097393e-02
  3.110744e-02
  2.107389e-02
  1.935004e-02
  2.364010e-02
  3.806142e-02
  6.976530e-02
  1.171660e-01
  1.561974e-01
  4.574808e-02
  4.628801e-02
  8.394395e-02
  2.911734e-01
  7.997657e-01
  9.666442e-01
  9.999000e-01
  9.999000e-01
  9.611884e-01
  7.561222e-01
  2.248308e-01
  5.528720e-02
  2.595699e-02
  5.693005e-02
  2.409106e-01
  7.340151e-01
  9.313348e-01
  9.504586e-01
  8.528574e-01
  5.229392e-01
  1.761436e-01
  5.998802e-02
  4.203618e-02
  5.001139e-02
  5.654651e-02
  5.205646e-02
  4.199247e-02
  3.487805e-02
  3.152027e-02
  3.007307e-02
  3.097740e-02
  3.542463e-02
  4.288798e-02
  5.129428e-02
  5.821719e-02
  6.093901e-02
  5.728487e-02
  4.921296e-02
  4.958132e-02
  9.244414e-02
  2.703838e-01
  5.902479e-01
  7.579258e-01
  7.547846e-01
  5.792469e-01
  2.615134e-01
  9.366523e-02
  5.254639e-02
  5.430024e-02
  1.003666e-01
  2.703008e-01
  5.496736e-01
  6.955711e-01
  6.548111e-01
  4.325578e-01
  1.834499e-01
  6.339050e-02
  2.970712e-02
  2.206386e-02
  2.179250e-02
  2.513060e-02
  3.177838e-02
  4.038329e-02
  4.630677e-02
  2.697547e-02
  2.915223e-02
  5.805358e-02
  2.087934e-01
  6.834088e-01
  9.248492e-01
  9.818189e-01
  9.795684e-01
  9.110284e-01
  6.305292e-01
  1.746076e-01
  4.708713e-02
  3.525798e-02
  1.087925e-01
  4.146808e-01
  8.339600e-01
  9.428259e-01
  9.079530e-01
  6.721567e-01
  2.473973e-01
  7.589034e-02
  4.931910e-02
  8.204955e-02
  1.397685e-01
  1.682057e-01
  1.368067e-01
  8.018164e-02
  4.432391e-02
  3.005557e-02
  2.454723e-02
  2.275636e-02
  2.376461e-02
  2.683922e-02
  2.989248e-02
  3.121507e-02
  3.083058e-02
  3.029037e-02
  3.303926e-02
  5.402026e-02
  1.626443e-01
  5.610816e-01
  8.728910e-01
  9.581043e-01
  9.559780e-01
  8.624536e-01
  5.335663e-01
  1.548250e-01
  5.816661e-02
  6.211435e-02
  1.754044e-01
  5.771307e-01
  8.626881e-01
  9.400333e-01
  9.272672e-01
  8.097864e-01
  4.697061e-01
  1.368359e-01
  4.570844e-02
  2.726895e-02
  2.531960e-02
  2.757017e-02
  3.019217e-02
  3.109196e-02
  2.954469e-02
  3.329733e-02
  2.830926e-02
  4.186754e-02
  1.189155e-01
  3.998057e-01
  7.409201e-01
  8.612405e-01
  8.524172e-01
  7.050216e-01
  3.406047e-01
  9.782500e-02
  4.111919e-02
  6.896372e-02
  2.403590e-01
  6.685770e-01
  9.073097e-01
  9.416786e-01
  8.321367e-01
  4.182371e-01
  1.170369e-01
  5.265753e-02
  9.318454e-02
  2.613497e-01
  4.956572e-01
  5.906977e-01
  4.686589e-01
  2.311137e-01
  8.379912e-02
  3.944177e-02
  2.861067e-02
  2.856435e-02
  3.598743e-02
  4.868722e-02
  5.664308e-02
  5.290644e-02
  4.129836e-02
  3.233761e-02
  3.329035e-02
  6.213633e-02
  2.138452e-01
  7.169257e-01
  9.500121e-01
  9.999000e-01
  9.991563e-01
  9.452155e-01
  7.011486e-01
  2.080213e-01
  6.929055e-02
  7.719764e-02