# vtk DataFile Version 2.0
time_10.vtk
ASCII
DATASET STRUCTURED_GRID
DIMENSIONS    64    64     1
POINTS    4096 float
  0.000000e+00   0.000000e+00   0.000000e+00
  0.000000e+00   1.000000e+00   0.000000e+00
  0.000000e+00   2.000000e+00   0.000000e+00
  0.000000e+00   3.000000e+00   0.000000e+00
  0.000000e+00   4.000000e+00   0.000000e+00
  0.000000e+00   5.000000e+00   0.000000e+00
  0.000000e+00   6.000000e+00   0.000000e+00
  0.000000e+00   7.000000e+00   0.000000e+00
  0.000000e+00   8.000000e+00   0.000000e+00
  0.000000e+00   9.000000e+00   0.000000e+00
  0.000000e+00   1.000000e+01   0.000000e+00
  0.000000e+00   1.100000e+01   0.000000e+00
  0.000000e+00   1.200000e+01   0.000000e+00
  0.000000e+00   1.300000e+01   0.000000e+00
  0.000000e+00   1.400000e+01   0.000000e+00
  0.000000e+00   1.500000e+01   0.000000e+00
  0.000000e+00   1.600000e+01   0.000000e+00
  0.000000e+00   1.700000e+01   0.000000e+00
  0.000000e+00   1.800000e+01   0.000000e+00
  0.000000e+00   1.900000e+01   0.000000e+00
  0.000000e+00   2.000000e+01   0.000000e+00
  0.000000e+00   2.100000e+01   0.000000e+00
  0.000000e+00   2.200000e+01   0.000000e+00
  0.000000e+00   2.300000e+01   0.000000e+00
  0.000000e+00   2.400000e+01   0.000000e+00
  0.000000e+00   2.500000e+01   0.000000e+00
  0.000000e+00   2.600000e+01   0.000000e+00
  0.000000e+00   2.700000e+01   0.000000e+00
  0.000000e+00   2.800000e+01   0.000000e+00
  0.000000e+00   2.900000e+01   0.000000e+00
  0.000000e+00   3.000000e+01   0.000000e+00
  0.000000e+00   3.100000e+01   0.000000e+00
  0.000000e+00   3.200000e+01   0.000000e+00
  0.000000e+00   3.300000e+01   0.000000e+00
  0.000000e+00   3.400000e+01   0.000000e+00
  0.000000e+00   3.500000e+01   0.000000e+00
  0.000000e+00   3.600000e+01   0.000000e+00
  0.000000e+00   3.700000e+01   0.000000e+00
  0.000000e+00   3.800000e+01   0.000000e+00
  0.000000e+00   3.900000e+01   0.000000e+00
  0.000000e+00   4.000000e+01   0.000000e+00
  0.000000e+00   4.100000e+01   0.000000e+00
  0.000000e+00   4.200000e+01   0.000000e+00
  0.000000e+00   4.300000e+01   0.000000e+00
  0.000000e+00   4.400000e+01   0.000000e+00
  0.000000e+00   4.500000e+01   0.000000e+00
  0.000000e+00   4.600000e+01   0.000000e+00
  0.000000e+00   4.700000e+01   0.000000e+00
  0.000000e+00   4.800000e+01   0.000000e+00
  0.000000e+00   4.900000e+01   0.000000e+00
  0.000000e+00   5.000000e+01   0.000000e+00
  0.000000e+00   5.100000e+01   0.000000e+00
  0.000000e+00   5.200000e+01   0.000000e+00
  0.000000e+00   5.300000e+01   0.000000e+00
  0.000000e+00   5.400000e+01   0.000000e+00
  0.000000e+00   5.500000e+01   0.000000e+00
  0.000000e+00   5.600000e+01   0.000000e+00
  0.000000e+00   5.700000e+01   0.000000e+00
  0.000000e+00   5.800000e+01   0.000000e+00
  0.000000e+00   5.900000e+01   0.000000e+00
  0.000000e+00   6.000000e+01   0.000000e+00
  0.000000e+00   6.100000e+01   0.000000e+00
  0.000000e+00   6.200000e+01   0.000000e+00
  0.000000e+00   6.300000e+01   0.000000e+00
  1.000000e+00   0.000000e+00   0.000000e+00
  1.000000e+00   1.000000e+00   0.000000e+00
  1.000000e+00   2.000000e+00   0.000000e+00
  1.000000e+00   3.000000e+00   0.000000e+00
  1.000000e+00   4.000000e+00   0.000000e+00
  1.000000e+00   5.000000e+00   0.000000e+00
  1.000000e+00   6.000000e+00   0.000000e+00
  1.000000e+00   7.000000e+00   0.000000e+00
  1.000000e+00   8.000000e+00   0.000000e+00
  1.000000e+00   9.000000e+00   0.000000e+00
  1.000000e+00   1.000000e+01   0.000000e+00
  1.000000e+00   1.100000e+01   0.000000e+00
  1.000000e+00   1.200000e+01   0.000000e+00
  1.000000e+00   1.300000e+01   0.000000e+00
  1.000000e+00   1.400000e+01   0.000000e+00
  1.000000e+00   1.500000e+01   0.000000e+00
  1.000000e+00   1.600000e+01   0.000000e+00
  1.000000e+00   1.700000e+01   0.000000e+00
  1.000000e+00   1.800000e+01   0.000000e+00
  1.000000e+00   1.900000e+01   0.000000e+00
  1.000000e+00   2.000000e+01   0.000000e+00
  1.000000e+00   2.100000e+01   0.000000e+00
  1.000000e+00   2.200000e+01   0.000000e+00
  1.000000e+00   2.300000e+01   0.000000e+00
  1.000000e+00   2.400000e+01   0.000000e+00
  1.000000e+00   2.500000e+01   0.000000e+00
  1.000000e+00   2.600000e+01   0.000000e+00
  1.000000e+00   2.700000e+01   0.000000e+00
  1.000000e+00   2.800000e+01   0.000000e+00
  1.000000e+00   2.900000e+01   0.000000e+00
  1.000000e+00   3.000000e+01   0.000000e+00
  1.000000e+00   3.100000e+01   0.000000e+00
  1.000000e+00   3.200000e+01   0.000000e+00
  1.000000e+00   3.300000e+01   0.000000e+00
  1.000000e+00   3.400000e+01   0.000000e+00
  1.000000e+00   3.500000e+01   0.000000e+00
  1.000000e+00   3.600000e+01   0.000000e+00
  1.000000e+00   3.700000e+01   0.000000e+00
  1.000000e+00   3.800000e+01   0.000000e+00
  1.000000e+00   3.900000e+01   0.000000e+00
  1.000000e+00   4.000000e+01   0.000000e+00
  1.000000e+00   4.100000e+01   0.000000e+00
  1.000000e+00   4.200000e+01   0.000000e+00
  1.000000e+00   4.300000e+01   0.000000e+00
  1.000000e+00   4.400000e+01   0.000000e+00
  1.000000e+00   4.500000e+01   0.000000e+00
  1.000000e+00   4.600000e+01   0.000000e+00
  1.000000e+00   4.700000e+01   0.000000e+00
  1.000000e+00   4.800000e+01   0.000000e+00
  1.000000e+00   4.900000e+01   0.000000e+00
  1.000000e+00   5.000000e+01   0.000000e+00
  1.000000e+00   5.100000e+01   0.000000e+00
  1.000000e+00   5.200000e+01   0.000000e+00
  1.000000e+00   5.300000e+01   0.000000e+00
  1.000000e+00   5.400000e+01   0.000000e+00
  1.000000e+00   5.500000e+01   0.000000e+00
  1.000000e+00   5.600000e+01   0.000000e+00
  1.000000e+00   5.700000e+01   0.000000e+00
  1.000000e+00   5.800000e+01   0.000000e+00
  1.000000e+00   5.900000e+01   0.000000e+00
  1.000000e+00   6.000000e+01   0.000000e+00
  1.000000e+00   6.100000e+01   0.000000e+00
  1.000000e+00   6.200000e+01   0.000000e+00
  1.000000e+00   6.300000e+01   0.000000e+00
  2.000000e+00   0.000000e+00   0.000000e+00
  2.000000e+00   1.000000e+00   0.000000e+00
  2.000000e+00   2.000000e+00   0.000000e+00
  2.000000e+00   3.000000e+00   0.000000e+00
  2.000000e+00   4.000000e+00   0.000000e+00
  2.000000e+00   5.000000e+00   0.000000e+00
  2.000000e+00   6.000000e+00   0.000000e+00
  2.000000e+00   7.000000e+00   0.000000e+00
  2.000000e+00   8.000000e+00   0.000000e+00
  2.000000e+00   9.000000e+00   0.000000e+00
  2.000000e+00   1.000000e+01   0.000000e+00
  2.000000e+00   1.100000e+01   0.000000e+00
  2.000000e+00   1.200000e+01   0.000000e+00
  2.000000e+00   1.300000e+01   0.000000e+00
  2.000000e+00   1.400000e+01   0.000000e+00
  2.000000e+00   1.500000e+01   0.000000e+00
  2.000000e+00   1.600000e+01   0.000000e+00
  2.000000e+00   1.700000e+01   0.000000e+00
  2.000000e+00   1.800000e+01   0.000000e+00
  2.000000e+00   1.900000e+01   0.000000e+00
  2.000000e+00   2.000000e+01   0.000000e+00
  2.000000e+00   2.100000e+01   0.000000e+00
  2.000000e+00   2.200000e+01   0.000000e+00
  2.000000e+00   2.300000e+01   0.000000e+00
  2.000000e+00   2.400000e+01   0.000000e+00
  2.000000e+00   2.500000e+01   0.000000e+00
  2.000000e+00   2.600000e+01   0.000000e+00
  2.000000e+00   2.700000e+01   0.000000e+00
  2.000000e+00   2.800000e+01   0.000000e+00
  2.000000e+00   2.900000e+01   0.000000e+00
  2.000000e+00   3.000000e+01   0.000000e+00
  2.000000e+00   3.100000e+01   0.000000e+00
  2.000000e+00   3.200000e+01   0.000000e+00
  2.000000e+00   3.300000e+01   0.000000e+00
  2.000000e+00   3.400000e+01   0.000000e+00
  2.000000e+00   3.500000e+01   0.000000e+00
  2.000000e+00   3.600000e+01   0.000000e+00
  2.000000e+00   3.700000e+01   0.000000e+00
  2.000000e+00   3.800000e+01   0.000000e+00
  2.000000e+00   3.900000e+01   0.000000e+00
  2.000000e+00   4.000000e+01   0.000000e+00
  2.000000e+00   4.100000e+01   0.000000e+00
  2.000000e+00   4.200000e+01   0.000000e+00
  2.000000e+00   4.300000e+01   0.000000e+00
  2.000000e+00   4.400000e+01   0.000000e+00
  2.000000e+00   4.500000e+01   0.000000e+00
  2.000000e+00   4.600000e+01   0.000000e+00
  2.000000e+00   4.700000e+01   0.000000e+00
  2.000000e+00   4.800000e+01   0.000000e+00
  2.000000e+00   4.900000e+01   0.000000e+00
  2.000000e+00   5.000000e+01   0.000000e+00
  2.000000e+00   5.100000e+01   0.000000e+00
  2.000000e+00   5.200000e+01   0.000000e+00
  2.000000e+00   5.300000e+01   0.000000e+00
  2.000000e+00   5.400000e+01   0.000000e+00
  2.000000e+00   5.500000e+01   0.000000e+00
  2.000000e+00   5.600000e+01   0.000000e+00
  2.000000e+00   5.700000e+01   0.000000e+00
  2.000000e+00   5.800000e+01   0.000000e+00
  2.000000e+00   5.900000e+01   0.000000e+00
  2.000000e+00   6.000000e+01   0.000000e+00
  2.000000e+00   6.100000e+01   0.000000e+00
  2.000000e+00   6.200000e+01   0.000000e+00
  2.000000e+00   6.300000e+01   0.000000e+00
  3.000000e+00   0.000000e+00   0.000000e+00
  3.000000e+00   1.000000e+00   0.000000e+00
  3.000000e+00   2.000000e+00   0.000000e+00
  3.000000e+00   3.000000e+00   0.000000e+00
  3.000000e+00   4.000000e+00   0.000000e+00
  3.000000e+00   5.000000e+00   0.000000e+00
  3.000000e+00   6.000000e+00   0.000000e+00
  3.000000e+00   7.000000e+00   0.000000e+00
  3.000000e+00   8.000000e+00   0.000000e+00
  3.000000e+00   9.000000e+00   0.000000e+00
  3.000000e+00   1.000000e+01   0.000000e+00
  3.000000e+00   1.100000e+01   0.000000e+00
  3.000000e+00   1.200000e+01   0.000000e+00
  3.000000e+00   1.300000e+01   0.000000e+00
  3.000000e+00   1.400000e+01   0.000000e+00
  3.000000e+00   1.500000e+01   0.000000e+00
  3.000000e+00   1.600000e+01   0.000000e+00
  3.000000e+00   1.700000e+01   0.000000e+00
  3.000000e+00   1.800000e+01   0.000000e+00
  3.000000e+00   1.900000e+01   0.000000e+00
  3.000000e+00   2.000000e+01   0.000000e+00
  3.000000e+00   2.100000e+01   0.000000e+00
  3.000000e+00   2.200000e+01   0.000000e+00
  3.000000e+00   2.300000e+01   0.000000e+00
  3.000000e+00   2.400000e+01   0.000000e+00
  3.000000e+00   2.500000e+01   0.000000e+00
  3.000000e+00   2.600000e+01   0.000000e+00
[...]
POINT_DATA  4096
SCALARS CON float 1
LOOKUP_TABLE default
  3.869465e-01
  3.837286e-01
  3.900044e-01
  4.018822e-01
  4.123809e-01
  4.160099e-01
  4.109222e-01
  4.000705e-01
  3.905258e-01
  3.885093e-01
  3.940058e-01
  4.010433e-01
  4.041266e-01
  4.034585e-01
  4.022773e-01
  4.013218e-01
  3.985809e-01
  3.937728e-01
  3.904895e-01
  3.922186e-01
  3.971904e-01
  3.993267e-01
  3.953337e-01
  3.890300e-01
  3.869582e-01
  3.914277e-01
  3.987877e-01
  4.035794e-01
  4.039944e-01
  4.029585e-01
  4.043677e-01
  4.090723e-01
  4.139286e-01
  4.144230e-01
  4.090208e-01
  4.007050e-01
  3.938202e-01
  3.906631e-01
  3.915766e-01
  3.964539e-01
  4.037377e-01
  4.086065e-01
  4.062874e-01
  3.984139e-01
  3.923594e-01
  3.932243e-01
  3.988030e-01
  4.025938e-01
  4.008581e-01
  3.957452e-01
  3.918453e-01
  3.917769e-01
  3.951811e-01
  4.001015e-01
  4.045876e-01
  4.074559e-01
  4.080053e-01
  4.057434e-01
  4.014942e-01
  3.984046e-01
  3.995472e-01
  4.033519e-01
  4.035008e-01
  3.963712e-01
  3.848977e-01
  3.824734e-01
  3.890354e-01
  4.011159e-01
  4.115736e-01
  4.145684e-01
  4.089942e-01
  3.988873e-01
  3.907774e-01
  3.890008e-01
  3.925955e-01
  3.969860e-01
  3.991289e-01
  4.000671e-01
  4.016957e-01
  4.030381e-01
  4.016828e-01
  3.982007e-01
  3.967026e-01
  3.999008e-01
  4.048723e-01
  4.054074e-01
  3.992199e-01
  3.911667e-01
  3.881162e-01
  3.921532e-01
  3.991976e-01
  4.034949e-01
  4.033491e-01
  4.018490e-01
  4.026168e-01
  4.065266e-01
  4.119684e-01
  4.164338e-01
  4.175761e-01
  4.139546e-01
  4.060660e-01
  3.970814e-01
  3.917711e-01
  3.934873e-01
  4.008988e-01
  4.075607e-01
  4.073230e-01
  4.014130e-01
  3.973453e-01
  4.002003e-01
  4.070404e-01
  4.102347e-01
  4.058907e-01
  3.975981e-01
  3.916540e-01
  3.911454e-01
  3.949910e-01
  4.003683e-01
  4.049808e-01
  4.076385e-01
  4.076838e-01
  4.048248e-01
  4.001787e-01
  3.967901e-01
  3.972494e-01
  3.999861e-01
  3.995819e-01
  3.931001e-01
  3.903723e-01
  3.874665e-01
  3.924455e-01
  4.024110e-01
  4.101645e-01
  4.102868e-01
  4.036519e-01
  3.959541e-01
  3.924851e-01
  3.941085e-01
  3.971246e-01
  3.972708e-01
  3.944456e-01
  3.925370e-01
  3.944404e-01
  3.987322e-01
  4.018405e-01
  4.026949e-01
  4.037005e-01
  4.068235e-01
  4.102880e-01
  4.103150e-01
  4.058504e-01
  4.002210e-01
  3.977022e-01
  3.994144e-01
  4.025969e-01
  4.035986e-01
  4.016155e-01
  3.988169e-01
  3.973720e-01
  3.981472e-01
  4.017934e-01
  4.085634e-01
  4.160719e-01
  4.190269e-01
  4.136302e-01
  4.023298e-01
  3.924578e-01
  3.900197e-01
  3.950831e-01
  4.021113e-01
  4.052785e-01
  4.045467e-01
  4.051081e-01
  4.103857e-01
  4.171302e-01
  4.184113e-01
  4.115029e-01
  4.009651e-01
  3.933532e-01
  3.913795e-01
  3.936267e-01
  3.975005e-01
  4.011417e-01
  4.032631e-01
  4.027216e-01
  3.992982e-01
  3.948446e-01
  3.927451e-01
  3.951150e-01
  3.999254e-01
  4.017803e-01
  3.974646e-01
  4.007398e-01
  3.952959e-01
  3.967933e-01
  4.031082e-01
  4.069240e-01
  4.032724e-01
  3.951549e-01
  3.901280e-01
  3.926068e-01
  4.001274e-01
  4.055382e-01
  4.035439e-01
  3.960432e-01
  3.899465e-01
  3.900716e-01
  3.952883e-01
  4.008347e-01
  4.034392e-01
  4.036630e-01
  4.036999e-01
  4.046113e-01
  4.061350e-01
  4.077711e-01
  4.089582e-01
  4.088798e-01
  4.071182e-01
  4.040268e-01
  4.002770e-01
  3.966227e-01
  3.935370e-01
  3.908706e-01
  3.890260e-01
  3.902895e-01
  3.970082e-01
  4.075088e-01
  4.152200e-01
  4.141430e-01
  4.051621e-01
  3.950483e-01
  3.899507e-01
  3.911966e-01
  3.959235e-01
  4.005852e-01
  4.043834e-01
  4.091427e-01
  4.155747e-01
  4.205749e-01
  4.196085e-01
  4.121231e-01
  4.027758e-01
  3.965494e-01
  3.945431e-01
  3.949821e-01
  3.963737e-01
  3.982275e-01
  3.994877e-01
  3.983043e-01
  3.943186e-01
  3.902962e-01
  3.903511e-01
  3.962651e-01
  4.051001e-01
  4.105155e-01
  4.082224e-01
  4.081732e-01
  3.998437e-01
  3.984618e-01
  4.025679e-01
  4.041913e-01
  3.978642e-01
  3.878156e-01
  3.834897e-01
  3.897841e-01
  4.028331e-01
  4.129916e-01
  4.129930e-01
  4.046951e-01
  3.965766e-01
  3.950391e-01
  3.993499e-01
  4.037725e-01
  4.035195e-01
  3.986104e-01
  3.927454e-01
  3.902182e-01
  3.937743e-01
  4.028810e-01
  4.126267e-01
  4.163459e-01
  4.116681e-01
  4.025925e-01
  3.947463e-01
  3.905424e-01
  3.887373e-01
  3.869616e-01
  3.848150e-01
  3.848799e-01
  3.900351e-01
  3.994831e-01
  4.081452e-01
  4.110538e-01
  4.079307e-01
  4.022788e-01
  3.973452e-01
  3.945254e-01
  3.942085e-01
  3.963912e-01
  4.006773e-01
  4.061149e-01
  4.108662e-01
  4.124288e-01
  4.094578e-01
  4.038524e-01
  3.996446e-01
  3.989693e-01
  4.002066e-01
  4.008129e-01
  4.007556e-01
  4.015210e-01
  4.025297e-01
  4.009183e-01
  3.957173e-01
  3.905932e-01
  3.909446e-01
  3.988299e-01
  4.105448e-01
  4.184851e-01
  4.170564e-01
  4.067739e-01
  3.975200e-01
  3.960734e-01
  4.014551e-01
  4.047017e-01
  3.986569e-01
  3.871552e-01
  3.809506e-01
  3.865447e-01
  4.009678e-01
  4.143357e-01
  4.179860e-01
  4.122990e-01
  4.054309e-01
  4.043542e-01
  4.084844e-01
  4.112604e-01
  4.070464e-01
  3.963114e-01
  3.846296e-01
  3.786383e-01
  3.828171e-01
  3.966554e-01
  4.125964e-01
  4.198060e-01
  4.141207e-01
  4.019334e-01
  3.922896e-01
  3.886251e-01
  3.886001e-01
  3.886706e-01
  3.878210e-01
  3.877657e-01
  3.904181e-01
  3.956750e-01
  4.016586e-01
  4.067338e-01
  4.104161e-01
  4.119759e-01
  4.099247e-01
  4.043799e-01
  3.984946e-01
  3.959170e-01
  3.974442e-01
  4.006115e-01
  4.019214e-01
  3.995157e-01
  3.946911e-01
  3.913082e-01
  3.927604e-01
  3.985282e-01
  4.042395e-01
  4.064104e-01
  4.064128e-01
  4.077500e-01
  4.102512e-01
  4.095483e-01
  4.031714e-01
  3.951363e-01
  3.924830e-01
  3.984878e-01
  4.096329e-01
  4.177528e-01
  4.163451e-01
  3.987637e-01
  3.905681e-01
  3.908540e-01
  3.995401e-01
  4.074980e-01
  4.055538e-01
  3.951755e-01
  3.865997e-01
  3.877510e-01
  3.978640e-01
  4.090125e-01
  4.130701e-01
  4.093829e-01
  4.049442e-01
  4.063460e-01
  4.127557e-01
  4.168034e-01
  4.121205e-01
  3.994717e-01
  3.854341e-01
  3.774601e-01
  3.804970e-01
  3.943526e-01
  4.113443e-01
  4.198028e-01
  4.148732e-01
  4.032599e-01
  3.945859e-01
  3.921924e-01
  3.934361e-01
  3.949788e-01
  3.957286e-01
  3.958422e-01
  3.952959e-01
  3.945165e-01
  3.953411e-01
  3.999701e-01
  4.083129e-01
  4.162769e-01
  4.181887e-01
  4.124809e-01
  4.037645e-01
  3.980901e-01
  3.973907e-01
  3.987898e-01
  3.980110e-01
  3.933152e-01
  3.871104e-01
  3.842043e-01
  3.877340e-01
  3.958168e-01
  4.026538e-01
  4.045812e-01
  4.043146e-01
  4.069456e-01
  4.125860e-01
  4.152416e-01
  4.099729e-01
  3.997084e-01
  3.926078e-01
  3.939379e-01
  4.017420e-01
  4.085329e-01
  4.074160e-01
  3.919968e-01
  3.849553e-01
  3.856942e-01
  3.959586e-01
  4.083885e-01
  4.130309e-01
  4.077304e-01
  3.994925e-01
  3.960081e-01
  3.987774e-01
  4.029939e-01
  4.027614e-01
  3.977568e-01
  3.941500e-01
  3.978001e-01
  4.074138e-01
  4.150192e-01
  4.137217e-01
  4.041563e-01
  3.925469e-01
  3.853041e-01
  3.864256e-01
  3.960698e-01
  4.086163e-01
  4.149997e-01
  4.113082e-01
  4.028748e-01
  3.971830e-01
  3.963612e-01
  3.981737e-01
  4.007114e-01
  4.033014e-01
  4.041524e-01
  4.007537e-01
  3.938710e-01
  3.887079e-01
  3.905092e-01
  3.995588e-01
  4.101048e-01
  4.146503e-01
  4.107997e-01
  4.031729e-01
  3.981059e-01
  3.979115e-01
  4.001027e-01
  4.004846e-01
  3.968843e-01
  3.910679e-01
  3.874388e-01
  3.889969e-01
  3.938936e-01
  3.967997e-01
  3.951119e-01
  3.927125e-01
  3.955214e-01
  4.040629e-01
  4.116356e-01
  4.107619e-01
  4.015479e-01
  3.916674e-01
  3.884255e-01
  3.925631e-01
  3.983175e-01
  3.985974e-01
  3.924529e-01
  3.856906e-01
  3.840562e-01
  3.916384e-01
  4.045539e-01
  4.143296e-01
  4.159762e-01
  4.117635e-01
  4.070774e-01
  4.046041e-01
  4.024070e-01
  3.970570e-01
  3.891833e-01
  3.846540e-01
  3.886797e-01
  3.995217e-01
  4.091491e-01
  4.111261e-01
  4.064865e-01
  4.004248e-01
  3.965590e-01
  3.961322e-01
  3.991994e-01
  4.036573e-01
  4.053680e-01
  4.025434e-01
  3.982229e-01
  3.960602e-01
  3.963130e-01
  3.978304e-01
  4.011054e-01
  4.062833e-01
  4.094944e-01
  4.053776e-01
  3.945106e-01
  3.845793e-01
  3.828110e-01
  3.896105e-01
  3.988923e-01
  4.035695e-01
  4.016271e-01
  3.968475e-01
  3.941310e-01
  3.953759e-01
  3.991314e-01
  4.024078e-01
  4.027688e-01
  4.001166e-01
  3.969204e-01
  3.955982e-01
  3.952871e-01
  3.925928e-01
  3.865586e-01
  3.814186e-01
  3.828525e-01
  3.920031e-01
  4.031410e-01
  4.076723e-01
  4.022379e-01
  3.921984e-01
  3.860487e-01
  3.876239e-01
  3.934728e-01
  3.963644e-01
  3.999076e-01
  3.936586e-01
  3.883754e-01
  3.898784e-01
  3.980480e-01
  4.075961e-01
  4.131700e-01
  4.136199e-01
  4.114744e-01
  4.091033e-01
  4.058202e-01
  3.993806e-01
  3.908167e-01
  3.857601e-01
  3.889021e-01
  3.981306e-01
  4.059716e-01
  4.078077e-01
  4.063167e-01
  4.059600e-01
  4.067093e-01
  4.056096e-01
  4.019450e-01
  3.977254e-01
  3.945277e-01
  3.928576e-01
  3.929963e-01
  3.940341e-01
  3.941106e-01
  3.937666e-01
  3.967157e-01
  4.044982e-01
  4.116169e-01
  4.098455e-01
  3.986781e-01
  3.869561e-01
  3.829837e-01
  3.871375e-01
  3.935564e-01
  3.965573e-01
  3.952282e-01
  3.924024e-01
  3.908414e-01
  3.915285e-01
  3.944054e-01
  3.988061e-01
  4.030433e-01
  4.051246e-01
  4.045921e-01
  4.025362e-01
  3.993486e-01
  3.940899e-01
  3.869966e-01
  3.812086e-01
  3.808994e-01
  3.878087e-01
  3.987259e-01
  4.062411e-01
  4.045885e-01
  3.958179e-01
  3.881516e-01
  3.879718e-01
  3.943566e-01
  4.003997e-01
  4.086356e-01
  4.048076e-01
  3.977899e-01
  3.933540e-01
  3.940756e-01
  3.981848e-01
  4.021222e-01
  4.040075e-01
  4.047530e-01
  4.057974e-01
  4.061963e-01
  4.034485e-01
  3.980039e-01
  3.946773e-01
  3.973171e-01
  4.034394e-01
  4.067290e-01
  4.053693e-01
  4.044333e-01
  4.081459e-01
  4.131687e-01
  4.122458e-01
  4.035245e-01
  3.927810e-01
  3.867536e-01
  3.877723e-01
  3.932714e-01
  3.975447e-01
  3.963323e-01
  3.921252e-01
  3.924381e-01
  4.009475e-01
  4.116504e-01
  4.142080e-01
  4.063172e-01
  3.963517e-01
  3.926366e-01
  3.953136e-01
  3.988815e-01
  3.993484e-01
  3.973481e-01
  3.951639e-01
  3.933873e-01
  3.916344e-01
  3.909650e-01
  3.934299e-01
  3.990490e-01
  4.047863e-01
  4.073821e-01
  4.063391e-01
  4.032990e-01
  3.997156e-01
  3.961888e-01
  3.932099e-01
  3.919970e-01
  3.944944e-01
  4.010708e-01
  4.077192e-01
  4.082514e-01
  4.013414e-01
  3.931790e-01
  3.912561e-01
  3.971030e-01
  4.052896e-01
  4.120521e-01
  4.125040e-01
  4.075777e-01
  4.008967e-01
  3.960033e-01
  3.939531e-01
  3.935531e-01
  3.936152e-01
  3.945730e-01
  3.972907e-01
  4.006535e-01
  4.020952e-01
  4.013714e-01
  4.016830e-01
  4.050719e-01
  4.084144e-01
  4.069829e-01
  4.019327e-01
  4.003453e-01
  4.063044e-01
  4.143901e-01
  4.144153e-01
  4.034262e-01
  3.896060e-01
  3.833638e-01
  3.884619e-01
  4.001239e-01
  4.082096e-01
  4.056781e-01
  3.965098e-01
  3.919089e-01
  3.981120e-01
  4.098805e-01
  4.162452e-01
  4.132293e-01
  4.074090e-01
  4.058588e-01
  4.080291e-01
  4.088073e-01
  4.061288e-01
  4.026961e-01
  4.009718e-01
  3.997107e-01
  3.966274e-01
  3.929137e-01
  3.927206e-01
  3.979348e-01
  4.052282e-01
  4.092800e-01
  4.083847e-01
  4.055906e-01
  4.047545e-01
  4.066175e-01
  4.083787e-01
  4.072427e-01
  4.046099e-01
  4.046571e-01
  4.080391e-01
  4.098609e-01
  4.058759e-01
  3.986564e-01
  3.949064e-01
  3.981828e-01
  4.058780e-01
  4.086935e-01
  4.130176e-01
  4.125049e-01
  4.078490e-01
  4.021226e-01
  3.979299e-01
  3.955445e-01
  3.939247e-01
  3.928242e-01
  3.929353e-01
  3.942479e-01
  3.958716e-01
  3.979344e-01
  4.017210e-01
  4.065280e-01
  4.082324e-01
  4.037689e-01
  3.966024e-01
  3.945725e-01
  4.013660e-01
  4.110693e-01
  4.126838e-01
  4.022929e-01
  3.883418e-01
  3.829179e-01
  3.911653e-01
  4.076709e-01
  4.194582e-01
  4.168094e-01
  4.038057e-01
  3.939058e-01
  3.955449e-01
  4.051321e-01
  4.126794e-01
  4.134808e-01
  4.119006e-01
  4.129110e-01
  4.148681e-01
  4.129552e-01
  4.069434e-01
  4.017998e-01
  4.009420e-01
  4.020956e-01
  4.009052e-01
  3.974262e-01
  3.965869e-01
  4.016875e-01
  4.095828e-01
  4.136828e-01
  4.114136e-01
  4.069665e-01
  4.063433e-01
  4.109157e-01
  4.157470e-01
  4.147341e-01
  4.082018e-01
  4.029168e-01
  4.035437e-01
  4.071208e-01
  4.073958e-01
  4.028568e-01
  3.979683e-01
  3.974882e-01
  4.021015e-01
  4.034323e-01
  4.087976e-01
  4.111821e-01
  4.096495e-01
  4.066533e-01
  4.052040e-01
  4.055704e-01
  4.053559e-01
  4.024948e-01
  3.974440e-01
  3.925366e-01
  3.902676e-01
  3.922361e-01
  3.979756e-01
  4.038338e-01
  4.047700e-01
  3.993095e-01
  3.921456e-01
  3.903911e-01
  3.969537e-01
  4.068100e-01
  4.101547e-01
  4.022523e-01
  3.895959e-01
  3.838955e-01
  3.916892e-01
  4.089417e-01
  4.225951e-01
  4.213216e-01
  4.075371e-01
  3.943717e-01
  3.913170e-01
  3.968057e-01
  4.029539e-01
  4.053738e-01
  4.066529e-01
  4.097664e-01
  4.120760e-01
  4.087578e-01
  4.004908e-01
  3.938050e-01
  3.934753e-01
  3.973822e-01
  3.997437e-01
  3.987360e-01
  3.987510e-01
  4.040256e-01
  4.123444e-01
  4.169082e-01
  4.142013e-01
  4.080868e-01
  4.053135e-01
  4.082480e-01
  4.122417e-01
  4.105454e-01
  4.027039e-01
  3.957683e-01
  3.959374e-01
  4.016848e-01
  4.061482e-01
  4.050643e-01
  4.005402e-01
  3.974286e-01
  3.985892e-01
  4.018316e-01
  4.049840e-01
  4.061871e-01
  4.050613e-01
  4.043120e-01
  4.069775e-01
  4.126022e-01
  4.166895e-01
  4.144845e-01
  4.055805e-01
  3.946775e-01
  3.879795e-01
  3.887859e-01
  3.952270e-01
  4.013769e-01
  4.020161e-01
  3.972486e-01
  3.918950e-01
  3.910388e-01
  3.964184e-01
  4.048321e-01
  4.092168e-01
  4.044712e-01
  3.936937e-01
  3.864303e-01
  3.902431e-01
  4.038360e-01
  4.165523e-01
  4.171014e-01
  4.053560e-01
  3.918999e-01
  3.859745e-01
  3.879193e-01
  3.922093e-01
  3.951521e-01
  3.981386e-01
  4.029404e-01
  4.066097e-01
  4.041033e-01
  3.956510e-01
  3.879910e-01
  3.870977e-01
  3.919456e-01
  3.963152e-01
  3.965278e-01
  3.957644e-01
  3.991320e-01
  4.065398e-01
  4.125067e-01
  4.125284e-01
  4.079500e-01
  4.038225e-01
  4.030868e-01
  4.035063e-01
  4.006140e-01
  3.940374e-01
  3.890493e-01
  3.905820e-01
  3.974828e-01
  4.037505e-01
  4.049760e-01
  4.022027e-01
  3.993893e-01
  3.992608e-01
  4.043746e-01
  4.037668e-01
  4.007486e-01
  3.968199e-01
  3.954506e-01
  3.996682e-01
  4.086998e-01
  4.169782e-01
  4.177025e-01
  4.089534e-01
  3.961948e-01
  3.878279e-01
  3.882470e-01
  3.947534e-01
  4.004967e-01
  4.011688e-01
  3.983565e-01
  3.959887e-01
  3.961561e-01
  3.991626e-01
  4.042271e-01
  4.081937e-01
  4.066061e-01
  3.989619e-01
  3.912260e-01
  3.907775e-01
  3.989499e-01
  4.085366e-01
  4.099081e-01
  4.011593e-01
  3.897306e-01
  3.836652e-01
  3.845438e-01
  3.885879e-01
  3.923870e-01
  3.963420e-01
  4.018687e-01
  4.067694e-01
  4.062284e-01
  3.992706e-01
  3.915310e-01
  3.895098e-01
  3.935307e-01
  3.976127e-01
  3.965792e-01
  3.922469e-01
  3.906412e-01
  3.946248e-01
  4.013244e-01
  4.058235e-01
  4.059019e-01
  4.030263e-01
  3.997068e-01
  3.967028e-01
  3.931690e-01
  3.894218e-01
  3.880574e-01
  3.910952e-01
  3.969174e-01
  4.014381e-01
  4.024935e-01
  4.017344e-01
  4.017800e-01
  4.031476e-01
  4.068452e-01
  4.034592e-01
  3.968436e-01
  3.900386e-01
  3.867001e-01
  3.895474e-01
  3.981912e-01
  4.078659e-01
  4.116371e-01
  4.062234e-01
  3.958935e-01
  3.888870e-01
  3.897125e-01
  3.955606e-01
  4.001852e-01
  4.010667e-01
  4.008359e-01
  4.016563e-01
  4.022037e-01
  4.014315e-01
  4.013096e-01
  4.031914e-01
  4.044919e-01
  4.020480e-01
  3.973703e-01
  3.955834e-01
  3.991684e-01
  4.043823e-01
  4.048391e-01
  3.987799e-01
  3.910626e-01
  3.876571e-01
  3.901533e-01
  3.955551e-01
  4.002508e-01
  4.037244e-01
  4.076172e-01
  4.115244e-01
  4.119720e-01
  4.070685e-01
  4.004548e-01
  3.980335e-01
  4.011552e-01
  4.046050e-01
  4.023050e-01
  3.945875e-01
  3.877434e-01
  3.870556e-01
  3.923490e-01
  3.992830e-01
  4.033336e-01
  4.028189e-01
  3.991758e-01
  3.950232e-01
  3.922157e-01
  3.915351e-01
  3.931445e-01
  3.962716e-01
  3.989083e-01
  3.993178e-01
  3.983093e-01
  3.987156e-01
  4.019039e-01
  4.057842e-01
  4.052324e-01
  4.017861e-01
  3.954918e-01
  3.892121e-01
  3.854961e-01
  3.862977e-01
  3.920128e-01
  3.999607e-01
  4.048387e-01
  4.029269e-01
  3.964394e-01
  3.917501e-01
  3.926435e-01
  3.967794e-01
  3.996148e-01
  4.006447e-01
  4.028009e-01
  4.060322e-01
  4.060007e-01
  4.008126e-01
  3.949793e-01
  3.938770e-01
  3.973937e-01
  4.011967e-01
  4.024955e-01
  4.023094e-01
  4.024030e-01
  4.023140e-01
  4.003802e-01
  3.968004e-01
  3.942734e-01
  3.954388e-01
  4.003852e-01
  4.064188e-01
  4.102437e-01
  4.110544e-01
  4.109496e-01
  4.115802e-01
  4.115681e-01
  4.087889e-01
  4.044826e-01
  4.027853e-01
  4.056205e-01
  4.094485e-01
  4.085552e-01
  4.017165e-01
  3.937468e-01
  3.902103e-01
  3.924700e-01
  3.976171e-01
  4.015695e-01
  4.021087e-01
  3.999240e-01
  3.974351e-01
  3.966480e-01
  3.978506e-01
  3.998435e-01
  4.009163e-01
  3.998194e-01
  3.968162e-01
  3.942251e-01
  3.948895e-01
  3.991850e-01
  4.039572e-01
  3.990537e-01
  3.981687e-01
  3.966375e-01
  3.951103e-01
  3.937613e-01
  3.934457e-01
  3.954942e-01
  3.997162e-01
  4.032542e-01
  4.029250e-01
  3.991928e-01
  3.960692e-01
  3.962112e-01
  3.979859e-01
  3.988133e-01
  3.997222e-01
  4.032960e-01
  4.076460e-01
  4.067289e-01
  3.984535e-01
  3.887943e-01
  3.853993e-01
  3.901284e-01
  3.987384e-01
  4.054820e-01
  4.071059e-01
  4.037283e-01
  3.979105e-01
  3.931811e-01
  3.921947e-01
  3.952773e-01
  4.005707e-01
  4.057352e-01
  4.090514e-01
  4.093441e-01
  4.067064e-01
  4.033084e-01
  4.016909e-01
  4.019691e-01
  4.019795e-01
  4.005544e-01
  3.994332e-01
  4.009435e-01
  4.044599e-01
  4.065797e-01
  4.051775e-01
  4.018311e-01
  3.994532e-01
  3.990075e-01
  3.994192e-01
  3.996077e-01
  3.995979e-01
  4.000289e-01
  4.012364e-01
  4.027369e-01
  4.034183e-01
  4.024013e-01
  3.997944e-01
  3.965289e-01
  3.937202e-01
  3.923783e-01
  3.931577e-01
  3.956656e-01
  3.981970e-01
  3.906287e-01
  3.932649e-01
  3.985475e-01
  4.037170e-01
  4.060561e-01
  4.053957e-01
  4.040493e-01
  4.040744e-01
  4.049337e-01
  4.044211e-01
  4.019578e-01
  3.995941e-01
  3.989433e-01
  3.989421e-01
  3.983232e-01
  3.986725e-01
  4.020311e-01
  4.059958e-01
  4.047635e-01
  3.965238e-01
  3.869134e-01
  3.833816e-01
  3.885048e-01
  3.988083e-01
  4.076396e-01
  4.092718e-01
  4.025945e-01
  3.923522e-01
  3.858771e-01
  3.872897e-01
  3.943090e-01
  4.006768e-01
  4.022489e-01
  3.997628e-01
  3.957284e-01
  3.916266e-01
  3.886878e-01
  3.885762e-01
  3.916547e-01
  3.955579e-01
  3.969832e-01
  3.951979e-01
  3.928518e-01
  3.928973e-01
  3.957115e-01
  3.996592e-01
  4.030789e-01
  4.046954e-01
  4.034296e-01
  3.996117e-01
  3.959219e-01
  3.955872e-01
  3.994051e-01
  4.047613e-01
  4.074987e-01
  4.051317e-01
  3.988315e-01
  3.925172e-01
  3.898008e-01
  3.912818e-01
  3.942892e-01
  3.954496e-01
  3.938260e-01
  3.913250e-01
  3.832933e-01
  3.884692e-01
  3.991883e-01
  4.093894e-01
  4.140836e-01
  4.127753e-01
  4.088126e-01
  4.057786e-01
  4.045757e-01
  4.036682e-01
  4.019073e-01
  4.002130e-01
  3.997203e-01
  3.996772e-01
  3.989086e-01
  3.983295e-01
  3.996058e-01
  4.015895e-01
  4.006663e-01
  3.955706e-01
  3.898613e-01
  3.885201e-01
  3.935064e-01
  4.024540e-01
  4.099495e-01
  4.104640e-01
  4.025905e-01
  3.915455e-01
  3.856618e-01
  3.889028e-01
  3.967933e-01
  4.005532e-01
  3.963404e-01
  3.882901e-01
  3.820504e-01
  3.793832e-01
  3.796475e-01
  3.829831e-01
  3.897421e-01
  3.976613e-01
  4.018673e-01
  3.992427e-01
  3.921832e-01
  3.864972e-01
  3.861652e-01
  3.910180e-01
  3.979020e-01
  4.026036e-01
  4.020176e-01