# vtk DataFile Version 2.0
time_10.vtk
ASCII
DATASET STRUCTURED_GRID
DIMENSIONS    64    64     1
POINTS    4096 float
  0.000000e+00   0.000000e+00   0.000000e+00
  0.000000e+00   1.000000e+00   0.000000e+00
  0.000000e+00   2.000000e+00   0.000000e+00
  0.000000e+00   3.000000e+00   0.000000e+00
  0.000000e+00   4.000000e+00   0.000000e+00
  0.000000e+00   5.000000e+00   0.000000e+00
  0.000000e+00   6.000000e+00   0.000000e+00
  0.000000e+00   7.000000e+00   0.000000e+00
  0.000000e+00   8.000000e+00   0.000000e+00
  0.000000e+00   9.000000e+00   0.000000e+00
  0.000000e+00   1.000000e+01   0.000000e+00
  0.000000e+00   1.100000e+01   0.000000e+00
  0.000000e+00   1.200000e+01   0.000000e+00
  0.000000e+00   1.300000e+01   0.000000e+00
  0.000000e+00   1.400000e+01   0.000000e+00
  0.000000e+00   1.500000e+01   0.000000e+00
  0.000000e+00   1.600000e+01   0.000000e+00
  0.000000e+00   1.700000e+01   0.000000e+00
  0.000000e+00   1.800000e+01   0.000000e+00
  0.000000e+00   1.900000e+01   0.000000e+00
  0.000000e+00   2.000000e+01   0.000000e+00
  0.000000e+00   2.100000e+01   0.000000e+00
  0.000000e+00   2.200000e+01   0.000000e+00
  0.000000e+00   2.300000e+01   0.000000e+00
  0.000000e+00   2.400000e+01   0.000000e+00
  0.000000e+00   2.500000e+01   0.000000e+00
  0.000000e+00   2.600000e+01   0.000000e+00
  0.000000e+00   2.700000e+01   0.000000e+00
  0.000000e+00   2.800000e+01   0.000000e+00
  0.000000e+00   2.900000e+01   0.000000e+00
  0.000000e+00   3.000000e+01   0.000000e+00
  0.000000e+00   3.100000e+01   0.000000e+00
  0.000000e+00   3.200000e+01   0.000000e+00
  0.000000e+00   3.300000e+01   0.000000e+00
  0.000000e+00   3.400000e+01   0.000000e+00
  0.000000e+00   3.500000e+01   0.000000e+00
  0.000000e+00   3.600000e+01   0.000000e+00
  0.000000e+00   3.700000e+01   0.000000e+00
  0.000000e+00   3.800000e+01   0.000000e+00
  0.000000e+00   3.900000e+01   0.000000e+00
  0.000000e+00   4.000000e+01   0.000000e+00
  0.000000e+00   4.100000e+01   0.000000e+00
  0.000000e+00   4.200000e+01   0.000000e+00
  0.000000e+00   4.300000e+01   0.000000e+00
  0.000000e+00   4.400000e+01   0.000000e+00
  0.000000e+00   4.500000e+01   0.000000e+00
  0.000000e+00   4.600000e+01   0.000000e+00
  0.000000e+00   4.700000e+01   0.000000e+00
  0.000000e+00   4.800000e+01   0.000000e+00
  0.000000e+00   4.900000e+01   0.000000e+00
  0.000000e+00   5.000000e+01   0.000000e+00
  0.000000e+00   5.100000e+01   0.000000e+00
  0.000000e+00   5.200000e+01   0.000000e+00
  0.000000e+00   5.300000e+01   0.000000e+00
  0.000000e+00   5.400000e+01   0.000000e+00
  0.000000e+00   5.500000e+01   0.000000e+00
  0.000000e+00   5.600000e+01   0.000000e+00
  0.000000e+00   5.700000e+01   0.000000e+00
  0.000000e+00   5.800000e+01   0.000000e+00
  0.000000e+00   5.900000e+01   0.000000e+00
  0.000000e+00   6.000000e+01   0.000000e+00
  0.000000e+00   6.100000e+01   0.000000e+00
  0.000000e+00   6.200000e+01   0.000000e+00
  0.000000e+00   6.300000e+01   0.000000e+00
  1.000000e+00   0.000000e+00   0.000000e+00
  1.000000e+00   1.000000e+00   0.000000e+00
  1.000000e+00   2.000000e+00   0.000000e+00
  1.000000e+00   3.000000e+00   0.000000e+00
  1.000000e+00   4.000000e+00   0.000000e+00
  1.000000e+00   5.000000e+00   0.000000e+00
  1.000000e+00   6.000000e+00   0.000000e+00
  1.000000e+00   7.000000e+00   0.000000e+00
  1.000000e+00   8.000000e+00   0.000000e+00
  1.000000e+00   9.000000e+00   0.000000e+00
  1.000000e+00   1.000000e+01   0.000000e+00
  1.000000e+00   1.100000e+01   0.000000e+00
  1.000000e+00   1.200000e+01   0.000000e+00
  1.000000e+00   1.300000e+01   0.000000e+00
  1.000000e+00   1.400000e+01   0.000000e+00
  1.000000e+00   1.500000e+01   0.000000e+00
  1.000000e+00   1.600000e+01   0.000000e+00
  1.000000e+00   1.700000e+01   0.000000e+00
  1.000000e+00   1.800000e+01   0.000000e+00
  1.000000e+00   1.900000e+01   0.000000e+00
  1.000000e+00   2.000000e+01   0.000000e+00
  1.000000e+00   2.100000e+01   0.000000e+00
  1.000000e+00   2.200000e+01   0.000000e+00
  1.000000e+00   2.300000e+01   0.000000e+00
  1.000000e+00   2.400000e+01   0.000000e+00
  1.000000e+00   2.500000e+01   0.000000e+00
  1.000000e+00   2.600000e+01   0.000000e+00
  1.000000e+00   2.700000e+01   0.000000e+00
  1.000000e+00   2.800000e+01   0.000000e+00
  1.000000e+00   2.900000e+01   0.000000e+00
  1.000000e+00   3.000000e+01   0.000000e+00
  1.000000e+00   3.100000e+01   0.000000e+00
  1.000000e+00   3.200000e+01   0.000000e+00
  1.000000e+00   3.300000e+01   0.000000e+00
  1.000000e+00   3.400000e+01   0.000000e+00
  1.000000e+00   3.500000e+01   0.000000e+00
  1.000000e+00   3.600000e+01   0.000000e+00
  1.000000e+00   3.700000e+01   0.000000e+00
  1.000000e+00   3.800000e+01   0.000000e+00
  1.000000e+00   3.900000e+01   0.000000e+00
  1.000000e+00   4.000000e+01   0.000000e+00
  1.000000e+00   4.100000e+01   0.000000e+00
  1.000000e+00   4.200000e+01   0.000000e+00
  1.000000e+00   4.300000e+01   0.000000e+00
  1.000000e+00   4.400000e+01   0.000000e+00
  1.000000e+00   4.500000e+01   0.000000e+00
  1.000000e+00   4.600000e+01   0.000000e+00
  1.000000e+00   4.700000e+01   0.000000e+00
  1.000000e+00   4.800000e+01   0.000000e+00
  1.000000e+00   4.900000e+01   0.000000e+00
  1.000000e+00   5.000000e+01   0.000000e+00
  1.000000e+00   5.100000e+01   0.000000e+00
  1.000000e+00   5.200000e+01   0.000000e+00
  1.000000e+00   5.300000e+01   0.000000e+00
  1.000000e+00   5.400000e+01   0.000000e+00
  1.000000e+00   5.500000e+01   0.000000e+00
  1.000000e+00   5.600000e+01   0.000000e+00
  1.000000e+00   5.700000e+01   0.000000e+00
  1.000000e+00   5.800000e+01   0.000000e+00
  1.000000e+00   5.900000e+01   0.000000e+00
  1.000000e+00   6.000000e+01   0.000000e+00
  1.000000e+00   6.100000e+01   0.000000e+00
  1.000000e+00   6.200000e+01   0.000000e+00
  1.000000e+00   6.300000e+01   0.000000e+00
  2.000000e+00   0.000000e+00   0.000000e+00
  2.000000e+00   1.000000e+00   0.000000e+00
  2.000000e+00   2.000000e+00   0.000000e+00
  2.000000e+00   3.000000e+00   0.000000e+00
  2.000000e+00   4.000000e+00   0.000000e+00
  2.000000e+00   5.000000e+00   0.000000e+00
  2.000000e+00   6.000000e+00   0.000000e+00
  2.000000e+00   7.000000e+00   0.000000e+00
  2.000000e+00   8.000000e+00   0.000000e+00
  2.000000e+00   9.000000e+00   0.000000e+00
  2.000000e+00   1.000000e+01   0.000000e+00
  2.000000e+00   1.100000e+01   0.000000e+00
  2.000000e+00   1.200000e+01   0.000000e+00
  2.000000e+00   1.300000e+01   0.000000e+00
  2.000000e+00   1.400000e+01   0.000000e+00
  2.000000e+00   1.500000e+01   0.000000e+00
  2.000000e+00   1.600000e+01   0.000000e+00
  2.000000e+00   1.700000e+01   0.000000e+00
  2.000000e+00   1.800000e+01   0.000000e+00
  2.000000e+00   1.900000e+01   0.000000e+00
  2.000000e+00   2.000000e+01   0.000000e+00
  2.000000e+00   2.100000e+01   0.000000e+00
  2.000000e+00   2.200000e+01   0.000000e+00
  2.000000e+00   2.300000e+01   0.000000e+00
  2.000000e+00   2.400000e+01   0.000000e+00
  2.000000e+00   2.500000e+01   0.000000e+00
  2.000000e+00   2.600000e+01   0.000000e+00
  2.000000e+00   2.700000e+01   0.000000e+00
  2.000000e+00   2.800000e+01   0.000000e+00
  2.000000e+00   2.900000e+01   0.000000e+00
  2.000000e+00   3.000000e+01   0.000000e+00
  2.000000e+00   3.100000e+01   0.000000e+00
  2.000000e+00   3.200000e+01   0.000000e+00
  2.000000e+00   3.300000e+01   0.000000e+00
  2.000000e+00   3.400000e+01   0.000000e+00
  2.000000e+00   3.500000e+01   0.000000e+00
  2.000000e+00   3.600000e+01   0.000000e+00
  2.000000e+00   3.700000e+01   0.000000e+00
  2.000000e+00   3.800000e+01   0.000000e+00
  2.000000e+00   3.900000e+01   0.000000e+00
  2.000000e+00   4.000000e+01   0.000000e+00
  2.000000e+00   4.100000e+01   0.000000e+00
  2.000000e+00   4.200000e+01   0.000000e+00
  2.000000e+00   4.300000e+01   0.000000e+00
  2.000000e+00   4.400000e+01   0.000000e+00
  2.000000e+00   4.500000e+01   0.000000e+00
  2.000000e+00   4.600000e+01   0.000000e+00
  2.000000e+00   4.700000e+01   0.000000e+00
  2.000000e+00   4.800000e+01   0.000000e+00
  2.000000e+00   4.900000e+01   0.000000e+00
  2.000000e+00   5.000000e+01   0.000000e+00
  2.000000e+00   5.100000e+01   0.000000e+00
  2.000000e+00   5.200000e+01   0.000000e+00
  2.000000e+00   5.300000e+01   0.000000e+00
  2.000000e+00   5.400000e+01   0.000000e+00
  2.000000e+00   5.500000e+01   0.000000e+00
  2.000000e+00   5.600000e+01   0.000000e+00
  2.000000e+00   5.700000e+01   0.000000e+00
  2.000000e+00   5.800000e+01   0.000000e+00
  2.000000e+00   5.900000e+01   0.000000e+00
  2.000000e+00   6.000000e+01   0.000000e+00
  2.000000e+00   6.100000e+01   0.000000e+00
  2.000000e+00   6.200000e+01   0.000000e+00
  2.000000e+00   6.300000e+01   0.000000e+00
  3.000000e+00   0.000000e+00   0.000000e+00
  3.000000e+00   1.000000e+00   0.000000e+00
  3.000000e+00   2.000000e+00   0.000000e+00
  3.000000e+00   3.000000e+00   0.000000e+00
  3.000000e+00   4.000000e+00   0.000000e+00
  3.000000e+00   5.000000e+00   0.000000e+00
  3.000000e+00   6.000000e+00   0.000000e+00
  3.000000e+00   7.000000e+00   0.000000e+00
  3.000000e+00   8.000000e+00   0.000000e+00
  3.000000e+00   9.000000e+00   0.000000e+00
  3.000000e+00   1.000000e+01   0.000000e+00
  3.000000e+00   1.100000e+01   0.000000e+00
  3.000000e+00   1.200000e+01   0.000000e+00
  3.000000e+00   1.300000e+01   0.000000e+00
  3.000000e+00   1.400000e+01   0.000000e+00
  3.000000e+00   1.500000e+01   0.000000e+00
  3.000000e+00   1.600000e+01   0.000000e+00
  3.000000e+00   1.700000e+01   0.000000e+00
  3.000000e+00   1.800000e+01   0.000000e+00
  3.000000e+00   1.900000e+01   0.000000e+00
  3.000000e+00   2.000000e+01   0.000000e+00
  3.000000e+00   2.100000e+01   0.000000e+00
  3.000000e+00   2.200000e+01   0.000000e+00
  3.000000e+00   2.300000e+01   0.000000e+00
  3.000000e+00   2.400000e+01   0.000000e+00
  3.000000e+00   2.500000e+01   0.000000e+00
  3.000000e+00   2.600000e+01   0.000000e+00
[...]
POINT_DATA  4096
SCALARS CON float 1
LOOKUP_TABLE default
  6.443374e-01
  9.316801e-01
  9.933404e-01
  9.999000e-01
  9.999000e-01
  9.962748e-01
  9.673928e-01
  8.149074e-01
  3.162255e-01
  8.320281e-02
  3.040141e-02
  1.875082e-02
  1.591108e-02
  1.612045e-02
  1.839490e-02
  2.205703e-02
  2.619799e-02
  3.003244e-02
  3.313294e-02
  3.520142e-02
  3.559463e-02
  3.369510e-02
  2.976051e-02
  2.548585e-02
  2.505187e-02
  3.989559e-02
  1.112637e-01
  3.430012e-01
  7.136563e-01
  9.045313e-01
  9.640728e-01
  9.753330e-01
  9.638895e-01
  9.302940e-01
  8.732907e-01
  8.014849e-01
  6.980390e-01
  5.080267e-01
  2.792384e-01
  1.231218e-01
  5.437237e-02
  3.641031e-02
  3.622743e-02
  4.573174e-02
  6.794935e-02
  9.545880e-02
  1.024486e-01
  8.111864e-02
  5.386414e-02
  3.976799e-02
  3.766576e-02
  5.802986e-02
  1.519999e-01
  4.069093e-01
  6.808824e-01
  7.757865e-01
  7.287253e-01
  5.074488e-01
  2.077597e-01
  6.737231e-02
  3.089445e-02
  2.733104e-02
  5.078280e-02
  1.772155e-01
  5.848114e-01
  9.059019e-01
  9.840532e-01
  9.962025e-01
  9.930924e-01
  9.760912e-01
  9.086844e-01
  6.603448e-01
  2.101641e-01
  6.164433e-02
  2.976803e-02
  2.341447e-02
  2.366592e-02
  2.817771e-02
  3.641623e-02
  4.676474e-02
  5.814477e-02
  7.027867e-02
  8.240203e-02
  9.172034e-02
  9.345014e-02
  8.405596e-02
  6.493453e-02
  4.314038e-02
  2.929693e-02
  2.705970e-02
  4.500474e-02
  1.228057e-01
  3.518505e-01
  7.080062e-01
  8.993620e-01
  9.633687e-01
  9.799494e-01
  9.801043e-01
  9.729877e-01
  9.609440e-01
  9.370785e-01
  8.746207e-01
  7.095717e-01
  3.648555e-01
  1.187080e-01
  5.283969e-02
  4.806091e-02
  7.859700e-02
  1.727161e-01
  2.968793e-01
  3.243528e-01
  2.245895e-01
  1.019578e-01
  5.414162e-02
  4.949179e-02
  1.044158e-01
  3.520383e-01
  7.595427e-01
  9.243454e-01
  9.625939e-01
  9.445098e-01
  8.308023e-01
  4.787183e-01
  1.323688e-01
  4.185107e-02
  2.821160e-02
  4.798412e-02
  1.602667e-01
  3.565577e-01
  7.557658e-01
  9.141249e-01
  9.514825e-01
  9.421774e-01
  8.855426e-01
  7.208104e-01
  3.711355e-01
  1.285633e-01
  6.843034e-02
  6.160041e-02
  6.739706e-02
  8.258139e-02
  1.124336e-01
  1.549200e-01
  1.994988e-01
  2.423711e-01
  2.855630e-01
  3.283405e-01
  3.601900e-01
  3.615979e-01
  3.167272e-01
  2.267078e-01
  1.182563e-01
  5.196762e-02
  2.938159e-02
  2.654513e-02
  4.480271e-02
  1.192951e-01
  3.343101e-01
  6.873034e-01
  8.907695e-01
  9.629413e-01
  9.852732e-01
  9.920212e-01
  9.935914e-01
  9.909606e-01
  9.770570e-01
  9.150895e-01
  6.805200e-01
  2.284264e-01
  8.075013e-02
  7.009370e-02
  1.559131e-01
  4.663596e-01
  7.630754e-01
  8.025480e-01
  6.013836e-01
  2.138499e-01
  7.936978e-02
  6.529064e-02
  1.669915e-01
  5.874880e-01
  9.019838e-01
  9.829896e-01
  9.979998e-01
  9.913262e-01
  9.382363e-01
  7.045874e-01
  2.057172e-01
  5.300384e-02
  2.642060e-02
  3.609952e-02
  1.008551e-01
  1.416719e-01
  3.697810e-01
  6.265921e-01
  7.298621e-01
  7.045569e-01
  5.574040e-01
  3.303400e-01
  1.771965e-01
  1.509580e-01
  1.960179e-01
  2.452508e-01
  2.929737e-01
  3.657237e-01
  4.881161e-01
  6.283817e-01
  7.273575e-01
  7.843988e-01
  8.196009e-01
  8.442054e-01
  8.596547e-01
  8.599199e-01
  8.256633e-01
  6.931054e-01
  3.702637e-01
  1.170295e-01
  4.311569e-02
  2.507326e-02
  2.389672e-02
  4.108723e-02
  1.087864e-01
  3.065004e-01
  6.562656e-01
  8.765289e-01
  9.595446e-01
  9.875269e-01
  9.972393e-01
  9.999000e-01
  9.990223e-01
  9.699602e-01
  8.138907e-01
  3.140885e-01
  1.041559e-01
  8.788106e-02
  2.190913e-01
  6.658763e-01
  9.181008e-01
  9.426897e-01
  7.762815e-01
  2.889806e-01
  9.540790e-02
  7.466103e-02
  2.064987e-01
  7.045307e-01
  9.418244e-01
  9.929448e-01
  9.999000e-01
  9.976862e-01
  9.652252e-01
  7.954706e-01
  2.615338e-01
  6.099018e-02
  2.305659e-02
  2.385697e-02
  4.932790e-02
  4.829221e-02
  1.020685e-01
  1.715160e-01
  2.094351e-01
  2.006885e-01
  1.595174e-01
  1.294415e-01
  1.888640e-01
  4.125358e-01
  6.600556e-01
  7.764458e-01
  8.214215e-01
  8.508206e-01
  8.847264e-01
  9.187487e-01
  9.429517e-01
  9.579157e-01
  9.678718e-01
  9.753546e-01
  9.807788e-01
  9.825463e-01
  9.737926e-01
  9.166230e-01
  6.793447e-01
  2.139066e-01
  6.311090e-02
  2.877589e-02
  2.021378e-02
  2.073939e-02
  3.627196e-02
  9.581980e-02
  2.710027e-01
  6.051445e-01
  8.467220e-01
  9.471983e-01
  9.834667e-01
  9.963607e-01
  9.976742e-01
  9.698149e-01
  8.163932e-01
  3.188314e-01
  1.052601e-01
  8.373875e-02
  1.935320e-01
  5.866786e-01
  8.610970e-01
  8.885008e-01
  6.952361e-01
  2.468614e-01
  8.479847e-02
  7.037432e-02
  2.026118e-01
  7.042963e-01
  9.415465e-01
  9.920448e-01
  9.999000e-01
  9.974264e-01
  9.718020e-01
  8.332258e-01
  3.212747e-01
  7.098068e-02
  2.025669e-02
  1.544727e-02
  2.384651e-02
  2.045877e-02
  3.233665e-02
  4.603025e-02
  5.435189e-02
  5.609511e-02
  6.201897e-02
  1.152036e-01
  3.535625e-01
  7.593942e-01
  9.188959e-01
  9.612659e-01
  9.712370e-01
  9.744151e-01
  9.779243e-01
  9.823080e-01
  9.863012e-01
  9.897111e-01
  9.929276e-01
  9.961119e-01
  9.988622e-01
  9.999000e-01
  9.984790e-01
  9.644626e-01
  7.835735e-01
  2.649850e-01
  7.457383e-02
  3.180538e-02
  2.072786e-02
  1.688297e-02
  1.807450e-02
  3.143410e-02
  8.053186e-02
  2.216249e-01
  5.084730e-01
  7.779788e-01
  9.057284e-01
  9.529066e-01
  9.571949e-01
  9.034647e-01
  6.809068e-01
  2.362526e-01
  8.358978e-02
  6.359027e-02
  1.110257e-01
  2.839225e-01
  5.212956e-01
  5.577053e-01
  3.522427e-01
  1.329579e-01
  5.878682e-02
  5.646917e-02
  1.626246e-01
  6.045426e-01
  9.140024e-01
  9.855209e-01
  9.979761e-01
  9.962273e-01
  9.756588e-01
  8.671813e-01
  4.288665e-01
  9.536707e-02
  2.099941e-02
  1.049024e-02
  1.315314e-02
  1.168846e-02
  1.592756e-02
  2.015387e-02
  2.386109e-02
  2.935031e-02
  4.972801e-02
  1.470820e-01
  5.257992e-01
  8.925369e-01
  9.835276e-01
  9.991538e-01
  9.990194e-01
  9.957236e-01
  9.922428e-01
  9.895889e-01
  9.882040e-01
  9.881925e-01
  9.894236e-01
  9.915157e-01
  9.936654e-01
  9.940087e-01
  9.864496e-01
  9.377265e-01
  7.227812e-01
  2.342547e-01
  6.894125e-02
  3.172186e-02
  2.171729e-02
  1.741835e-02
  1.539007e-02
  1.683191e-02
  2.750536e-02
  6.321791e-02
  1.571699e-01
  3.452415e-01
  5.980237e-01
  7.405848e-01
  7.556717e-01
  6.338807e-01
  3.434355e-01
  1.218494e-01
  5.660936e-02
  4.682338e-02
  6.062827e-02
  1.036393e-01
  1.633233e-01
  1.738678e-01
  1.202756e-01
  6.517020e-02
  4.108037e-02
  4.252903e-02
  1.095583e-01
  4.220734e-01
  8.518548e-01
  9.713569e-01
  9.944087e-01
  9.952222e-01
  9.807575e-01
  9.078948e-01
  5.966665e-01
  1.523408e-01
  3.083897e-02
  9.247978e-03
  8.397687e-03
  8.565517e-03
  1.104600e-02
  1.389024e-02
  1.731605e-02
  2.394423e-02
  4.668115e-02
  1.485918e-01
  5.385255e-01
  9.003565e-01
  9.870139e-01
  9.999000e-01
  9.970657e-01
  9.889418e-01
  9.776429e-01
  9.659833e-01
  9.573258e-01
  9.528414e-01
  9.519456e-01
  9.529122e-01
  9.524679e-01
  9.433712e-01
  9.061827e-01
  7.845768e-01
  4.641293e-01
  1.441183e-01
  5.149528e-02
  2.948844e-02
  2.311796e-02
  2.065265e-02
  1.980729e-02
  1.997917e-02
  2.222286e-02
  3.033927e-02
  5.231362e-02
  9.927362e-02
  1.718919e-01
  2.293470e-01
  2.372778e-01
  1.884183e-01
  1.087882e-01
  5.690852e-02
  3.997489e-02
  3.766457e-02
  4.197324e-02
  5.251608e-02
  6.630273e-02
  7.130625e-02
  6.211219e-02
  4.802767e-02
  3.706541e-02
  3.516541e-02
  6.974884e-02
  2.563692e-01
  7.325924e-01
  9.391796e-01
  9.865487e-01
  9.936214e-01
  9.856228e-01
  9.431914e-01
  7.553802e-01
  2.791453e-01
  6.626838e-02
  1.648832e-02
  7.964372e-03
  1.018806e-02
  9.693102e-03
  1.143308e-02
  1.448041e-02
  2.032513e-02
  3.729992e-02
  1.052881e-01
  3.690601e-01
  7.836644e-01
  9.314379e-01
  9.623252e-01
  9.566684e-01
  9.302842e-01
  8.836481e-01
  8.313867e-01
  7.928008e-01
  7.719233e-01
  7.643743e-01
  7.621190e-01
  7.520828e-01
  7.087761e-01
  5.850205e-01
  3.649691e-01
  1.693302e-01
  6.761760e-02
  3.659146e-02
  2.858011e-02
  2.837027e-02
  3.403791e-02
  4.413782e-02
  5.329545e-02
  5.936195e-02
  6.404787e-02
  7.017438e-02
  7.949790e-02
  8.947965e-02
  9.062690e-02
  7.954694e-02
  6.248358e-02
  4.562548e-02
  3.576021e-02
  3.276918e-02
  3.322450e-02
  3.598353e-02
  4.247684e-02
  5.559145e-02
  7.340393e-02
  8.288619e-02
  7.609596e-02
  5.729459e-02
  4.060093e-02
  4.869307e-02
  1.428993e-01
  4.999503e-01
  8.537359e-01
  9.633805e-01
  9.879517e-01
  9.882269e-01
  9.677786e-01
  8.745391e-01
  5.466619e-01
  1.823833e-01
  5.261645e-02
  1.802268e-02
  2.627595e-02
  1.374212e-02
  1.106698e-02
  1.229678e-02
  1.629094e-02
  2.597689e-02
  5.656501e-02
  1.640958e-01
  4.326332e-01
  6.832755e-01
  7.670758e-01
  7.513867e-01
  6.578928e-01
  4.879009e-01
  3.313908e-01
  2.512972e-01
  2.212524e-01
  2.138884e-01
  2.143017e-01
  2.114827e-01
  1.942357e-01
  1.544708e-01
  1.004818e-01
  5.873912e-02
  3.767033e-02
  3.124535e-02
  3.379513e-02
  5.080689e-02
  9.603235e-02
  1.657352e-01
  2.234956e-01
  2.566805e-01
  2.721112e-01
  2.762344e-01
  2.677224e-01
  2.367461e-01
  1.744788e-01
  1.001270e-01
  5.403156e-02
  3.596143e-02
  3.065674e-02
  2.999507e-02
  3.141018e-02
  3.634779e-02
  5.332776e-02
  1.044191e-01
  1.948504e-01
  2.569646e-01
  2.462298e-01
  1.706937e-01
  8.483812e-02
  4.833582e-02
  7.491626e-02
  2.435053e-01
  6.428066e-01
  8.890621e-01
  9.660630e-01
  9.845575e-01
  9.809860e-01
  9.467136e-01
  8.126892e-01
  4.824332e-01
  1.894556e-01
  6.739308e-02
  9.933285e-02
  3.846734e-02
  1.780456e-02
  1.238118e-02
  1.315998e-02
  1.786428e-02
  2.914768e-02
  5.826919e-02
  1.223096e-01
  1.950098e-01
  2.270551e-01
  2.129707e-01
  1.681266e-01
  1.131326e-01
  7.251316e-02
  5.355321e-02
  4.856700e-02
  5.070418e-02
  5.505105e-02
  5.721385e-02
  5.469041e-02
  4.785547e-02
  3.935103e-02
  3.305562e-02
  3.059280e-02
  3.390723e-02
  5.431198e-02
  1.340915e-01
  3.407779e-01
  6.086429e-01
  7.542400e-01
  8.047870e-01
  8.195597e-01
  8.203798e-01
  8.059409e-01
  7.502075e-01
  5.875356e-01
  3.090285e-01
  1.158713e-01
  4.869615e-02
  3.218823e-02
  2.947695e-02
  3.173647e-02
  4.412167e-02
  9.919879e-02
  2.990959e-01
  6.182229e-01
  7.679377e-01
  7.545618e-01
  5.709220e-01
  2.532641e-01
  8.290725e-02
  4.941595e-02
  9.886240e-02
  3.014686e-01
  6.693644e-01
  8.850730e-01
  9.600751e-01
  9.803608e-01
  9.763095e-01
  9.392263e-01
  8.201532e-01
  5.581650e-01
  2.561172e-01
  3.555004e-01
  1.447843e-01
  5.541118e-02
  2.409349e-02
  1.524298e-02
  1.493054e-02
  1.879097e-02
  2.657157e-02
  3.918983e-02
  5.169946e-02
  5.581933e-02
  5.032940e-02
  3.912388e-02
  2.744912e-02
  2.022693e-02
  1.958946e-02
  2.603372e-02
  3.884303e-02
  5.157338e-02
  5.405386e-02
  4.574424e-02
  3.656638e-02
  3.165020e-02
  2.994796e-02
  3.151376e-02
  4.355229e-02
  1.032108e-01
  3.410176e-01
  7.327312e-01
  9.044931e-01
  9.555070e-01
  9.688127e-01
  9.718490e-01
  9.717711e-01
  9.681292e-01
  9.520380e-01
  8.904622e-01
  6.880317e-01
  2.832134e-01
  8.619971e-02
  3.907777e-02
  3.056824e-02
  3.378667e-02
  5.901396e-02
  1.835060e-01
  6.101231e-01
  8.878093e-01
  9.606258e-01
  9.566245e-01
  8.680298e-01
  5.572512e-01
  1.586313e-01
  5.118644e-02
  4.444393e-02
  1.034615e-01
  2.922596e-01
  6.347074e-01
  8.622645e-01
  9.507812e-01
  9.776413e-01
  9.774531e-01
  9.505471e-01
  8.688854e-01
  6.740556e-01
  7.636823e-01
  4.751656e-01
  2.127451e-01
  8.878022e-02
  4.261639e-02
  2.660636e-02
  2.205108e-02
  2.193977e-02
  2.314016e-02
  2.398778e-02
  2.301867e-02
  2.013649e-02
  1.654152e-02
  1.407551e-02
  1.539664e-02
  2.569872e-02
  5.583407e-02
  1.122395e-01
  1.654690e-01
  1.628840e-01
  1.070122e-01
  5.771249e-02
  3.803387e-02
  3.249108e-02
  3.465227e-02
  5.608145e-02
  1.676382e-01
  5.843882e-01
  8.998198e-01
  9.805847e-01
  9.959857e-01
  9.979904e-01
  9.979856e-01
  9.978654e-01
  9.974991e-01
  9.944061e-01
  9.745175e-01
  8.747620e-01
  5.090522e-01
  1.418915e-01
  4.930111e-02
  3.242989e-02
  3.578497e-02
  7.108726e-02
  2.474218e-01
  7.657080e-01
  9.605370e-01
  9.999000e-01
  9.992588e-01
  9.547772e-01
  7.419771e-01
  2.257633e-01
  6.057666e-02
  2.961358e-02
  3.787576e-02
  9.119562e-02
  2.506090e-01
  5.693483e-01
  8.284269e-01
  9.390094e-01
  9.752778e-01
  9.810385e-01
  9.652628e-01
  9.102946e-01
  9.345009e-01
  8.339072e-01
  6.247980e-01
  3.474881e-01
  1.848970e-01
  1.052558e-01
  6.581620e-02
  4.493833e-02
  3.119133e-02
  2.333646e-02
  1.914703e-02
  1.615634e-02
  1.403388e-02
  1.443911e-02
  2.335153e-02
  6.168501e-02
  1.845985e-01
  4.128214e-01
  5.978970e-01
  5.721323e-01
  3.395236e-01
  1.247334e-01
  5.396068e-02
  3.666783e-02
  3.678231e-02
  6.152948e-02
  1.942924e-01
  6.667414e-01
  9.344123e-01
  9.926973e-01
  9.999000e-01
  9.999000e-01
  9.999000e-01
  9.999000e-01
  9.999000e-01
  9.999000e-01
  9.916810e-01
  9.260149e-01
  6.283000e-01
  1.766465e-01
  5.581524e-02
  3.360906e-02
  3.610084e-02
  7.184029e-02
  2.510776e-01
  7.722607e-01
  9.625479e-01
  9.999000e-01
  9.999000e-01
  9.620686e-01
  7.656036e-01
  2.391616e-01
  6.346712e-02
  2.682869e-02
  2.144084e-02
  3.168048e-02
  7.488779e-02
  2.045535e-01
  4.884089e-01
  7.802049e-01
  9.176171e-01
  9.661003e-01
  9.790342e-01
  9.714333e-01
  9.648059e-01
  9.477733e-01
  8.963631e-01
  7.951697e-01
  6.417341e-01
  4.402711e-01
  2.798573e-01
  1.705398e-01
  8.599385e-02
  4.059165e-02
  2.397791e-02
  1.758729e-02
  1.506658e-02
  1.842243e-02
  4.419360e-02
  1.606940e-01
  5.100581e-01
  8.168707e-01
  9.174692e-01
  8.955367e-01
  6.919545e-01
  2.408979e-01
  7.702549e-02
  4.071475e-02
  3.646653e-02
  5.527401e-02
  1.605172e-01
  5.610855e-01
  8.899897e-01
  9.774687e-01
  9.952499e-01
  9.983654e-01
  9.990740e-01
  9.995320e-01
  9.998891e-01
  9.984819e-01
  9.839102e-01
  9.014423e-01
  5.688566e-01
  1.594331e-01
  5.316547e-02
  3.360942e-02
  3.517386e-02
  6.156768e-02
  1.935138e-01
  6.364117e-01
  9.002881e-01
  9.675551e-01
  9.688447e-01
  9.048397e-01
  6.425459e-01
  1.910722e-01
  5.625282e-02
  2.672384e-02
  1.931744e-02
  1.861695e-02
  2.710565e-02
  6.050431e-02
  1.595822e-01
  3.865258e-01
  6.904977e-01
  8.598991e-01
  9.330346e-01
  9.599698e-01
  9.047260e-01
  9.421301e-01
  9.542558e-01
  9.449342e-01
  9.159549e-01
  8.638709e-01
  7.788086e-01
  5.956099e-01
  2.938883e-01
  9.826617e-02
  3.807425e-02
  2.134683e-02
  1.703900e-02
  2.576137e-02
  8.522614e-02
  3.411142e-01
  7.857343e-01
  9.527809e-01
  9.908820e-01
  9.720910e-01
  8.230518e-01
  3.147080e-01
  9.083633e-02
  4.204052e-02
  3.430544e-02
  4.316228e-02
  9.649808e-02
  3.142201e-01
  7.083889e-01
  8.957437e-01
  9.544030e-01
  9.713742e-01
  9.766942e-01
  9.784425e-01
  9.773019e-01
  9.677077e-01
  9.250677e-01
  7.633651e-01
  3.561158e-01
  1.058216e-01
  4.546830e-02
  3.585769e-02
  3.847180e-02
  5.229191e-02
  1.130394e-01
  3.345189e-01
  6.579387e-01
  7.984785e-01
  8.025197e-01
  6.710004e-01
  3.456728e-01
  1.125948e-01
  4.685440e-02
  2.954958e-02
  2.252000e-02
  1.858132e-02
  1.789192e-02
  2.403315e-02
  4.734188e-02
  1.116260e-01
  2.534362e-01
  4.883684e-01
  7.102218e-01
  8.328638e-01
  6.195762e-01
  7.981343e-01
  9.076090e-01
  9.583607e-01
  9.753217e-01
  9.756255e-01
  9.595120e-01
  8.912493e-01
  6.510353e-01
  2.145522e-01
  6.324906e-02
  2.688395e-02
  1.996897e-02
  3.890129e-02
  1.561377e-01
  5.830901e-01
  9.032050e-01
  9.857952e-01
  9.998691e-01
  9.753307e-01
  8.236343e-01
  3.061032e-01
  8.631137e-02
  3.996312e-02
  3.217808e-02
  3.446520e-02
  5.226152e-02
  1.238255e-01
  3.187784e-01
  5.935014e-01
  7.567704e-01
  8.186304e-01
  8.409815e-01
  8.474700e-01
  8.401352e-01
  8.033960e-01
  6.841367e-01
  4.082630e-01
  1.557374e-01
  6.293512e-02
  4.661865e-02
  5.618017e-02
  6.962412e-02
  7.687772e-02
  8.632651e-02
  1.301016e-01
  2.193957e-01
  2.868353e-01
  2.901866e-01
  2.252527e-01
  1.297423e-01
  7.560156e-02
  5.846747e-02
  4.762741e-02
  3.532428e-02
  2.521888e-02
  1.950748e-02
  1.798274e-02
  2.152444e-02
  3.455863e-02
  6.621380e-02
  1.287750e-01
  2.290937e-01
  3.907332e-01
  1.844320e-01
  3.751137e-01
  6.820145e-01
  8.836625e-01
  9.649034e-01
  9.926604e-01
  9.982607e-01
  9.720315e-01
  8.196383e-01
  3.170962e-01
  8.643424e-02
  3.193527e-02
  2.489021e-02
  6.346267e-02
  2.646546e-01
  7.565667e-01
  9.492669e-01
  9.911005e-01
  9.913201e-01
  9.456813e-01
  7.326756e-01
  2.357898e-01
  6.933170e-02
  3.700700e-02
  3.220187e-02
  3.213873e-02
  3.557487e-02
  5.095947e-02
  9.412594e-02
  1.672367e-01
  2.371325e-01
  2.868546e-01
  3.174323e-01
  3.292869e-01
  3.185003e-01
  2.795364e-01
  2.099801e-01
  1.228670e-01
  6.480696e-02
  5.305822e-02
  8.484093e-02
  1.622767e-01
  2.318741e-01
  2.422392e-01
  1.897429e-01
  1.185174e-01
  8.977092e-02
  8.883074e-02
  8.925616e-02
  8.723586e-02
  9.883204e-02
  1.330972e-01
  1.579084e-01
  1.392062e-01
  9.053598e-02
  4.908296e-02
  2.807047e-02
  2.033845e-02
  1.824583e-02
  1.936708e-02
  2.423292e-02
  3.487889e-02
  5.471031e-02
  9.522638e-02
  4.495362e-02
  1.056500e-01
  2.837420e-01
  6.349925e-01
  8.761113e-01
  9.659317e-01
  9.918655e-01
  9.741067e-01
  8.312726e-01
  3.306045e-01
  9.016948e-02
  3.452717e-02
  3.661167e-02
  1.196771e-01
  4.544837e-01
  8.572604e-01
  9.679472e-01
  9.866197e-01
  9.678725e-01
  8.634715e-01
  5.116710e-01
  1.459242e-01
  5.296957e-02
  3.960411e-02
  3.977280e-02
  3.845133e-02
  3.518842e-02
  3.431628e-02
  3.938815e-02
  5.066533e-02
  6.320287e-02
  7.350159e-02
  8.072745e-02
  8.419474e-02
  8.260832e-02
  7.486333e-02
  6.156755e-02
  4.757233e-02
  4.580054e-02
  8.242740e-02
  2.361421e-01
  5.437458e-01
  7.364739e-01
  7.514429e-01
  5.969858e-01
  2.868107e-01
  1.028227e-01
  5.580546e-02
  5.483029e-02
  9.173589e-02
  2.208884e-01
  4.269890e-01
  5.553787e-01
  5.039949e-01
  3.156377e-01
  1.386651e-01
  5.319780e-02
  2.765457e-02
  2.086416e-02
  1.900290e-02
  1.855896e-02
  1.879850e-02
  2.019573e-02
  2.579416e-02
  1.788237e-02
  3.145635e-02
  8.669711e-02
  2.583858e-01
  5.938748e-01
  8.262131e-01
  9.079043e-01
  8.845094e-01
  6.844456e-01
  2.401262e-01
  7.195832e-02
  3.828425e-02
  7.030537e-02
  2.493720e-01
  6.929446e-01
  9.230540e-01
  9.757877e-01
  9.735855e-01
  9.131143e-01
  6.784166e-01
  2.583683e-01
  8.174097e-02
  5.472335e-02
  6.894258e-02
  8.019389e-02
  7.213707e-02
  5.201153e-02
  3.748092e-02
  3.124671e-02
  2.970568e-02
  3.030620e-02
  3.187996e-02
  3.384569e-02
  3.546475e-02
  3.595522e-02
  3.500394e-02
  3.340160e-02
  3.462774e-02
  5.264021e-02
  1.489423e-01
  5.132725e-01
  8.519127e-01
  9.520715e-01
  9.569924e-01
  8.774565e-01
  5.822717e-01
  1.751434e-01
  6.490443e-02
  6.506466e-02
  1.701071e-01
  5.390507e-01
  8.258702e-01
  9.079845e-01
  8.878035e-01
  7.474510e-01
  3.915242e-01
  1.163625e-01
  4.209892e-02
  2.613526e-02
  2.301533e-02
  2.245582e-02
  2.161397e-02
  1.950497e-02
  1.705884e-02
  2.090914e-02
  1.857591e-02
  3.039234e-02
  7.731799e-02
  1.974158e-01
  3.883700e-01
  5.450323e-01
  5.169605e-01
  3.082637e-01
  1.150389e-01
  5.155721e-02
  5.942905e-02
  1.693828e-01
  5.118282e-01
  8.539742e-01
  9.589237e-01
  9.756559e-01
  9.450265e-01
  7.922011e-01
  3.819719e-01
  1.188005e-01
  6.661593e-02
  1.136863e-01
  2.139609e-01
  2.669770e-01
  2.237480e-01
  1.218732e-01
  5.796363e-02
  3.546680e-02
  2.849263e-02
  2.712018e-02
  2.895692e-02
  3.284240e-02
  3.636762e-02
  3.731024e-02
  3.534953e-02
  3.282890e-02
  3.549018e-02
  6.231730e-02
  2.028561e-01
  6.866582e-01
  9.414320e-01
  9.983700e-01
  9.999000e-01
  9.533853e-01
  7.347821e-01
  2.301179e-01
  7.719335e-02
  8.233940e-02