# vtk DataFile Version 2.0
time_10.vtk
ASCII
DATASET STRUCTURED_GRID
DIMENSIONS    64    64     1
POINTS    4096 float
  0.000000e+00   0.000000e+00   0.000000e+00
  0.000000e+00   1.000000e+00   0.000000e+00
  0.000000e+00   2.000000e+00   0.000000e+00
  0.000000e+00   3.000000e+00   0.000000e+00
  0.000000e+00   4.000000e+00   0.000000e+00
  0.000000e+00   5.000000e+00   0.000000e+00
  0.000000e+00   6.000000e+00   0.000000e+00
  0.000000e+00   7.000000e+00   0.000000e+00
  0.000000e+00   8.000000e+00   0.000000e+00
  0.000000e+00   9.000000e+00   0.000000e+00
  0.000000e+00   1.000000e+01   0.000000e+00
  0.000000e+00   1.100000e+01   0.000000e+00
  0.000000e+00   1.200000e+01   0.000000e+00
  0.000000e+00   1.300000e+01   0.000000e+00
  0.000000e+00   1.400000e+01   0.000000e+00
  0.000000e+00   1.500000e+01   0.000000e+00
  0.000000e+00   1.600000e+01   0.000000e+00
  0.000000e+00   1.700000e+01   0.000000e+00
  0.000000e+00   1.800000e+01   0.000000e+00
  0.000000e+00   1.900000e+01   0.000000e+00
  0.000000e+00   2.000000e+01   0.000000e+00
  0.000000e+00   2.100000e+01   0.000000e+00
  0.000000e+00   2.200000e+01   0.000000e+00
  0.000000e+00   2.300000e+01   0.000000e+00
  0.000000e+00   2.400000e+01   0.000000e+00
  0.000000e+00   2.500000e+01   0.000000e+00
  0.000000e+00   2.600000e+01   0.000000e+00
  0.000000e+00   2.700000e+01   0.000000e+00
  0.000000e+00   2.800000e+01   0.000000e+00
  0.000000e+00   2.900000e+01   0.000000e+00
  0.000000e+00   3.000000e+01   0.000000e+00
  0.000000e+00   3.100000e+01   0.000000e+00
  0.000000e+00   3.200000e+01   0.000000e+00
  0.000000e+00   3.300000e+01   0.000000e+00
  0.000000e+00   3.400000e+01   0.000000e+00
  0.000000e+00   3.500000e+01   0.000000e+00
  0.000000e+00   3.600000e+01   0.000000e+00
  0.000000e+00   3.700000e+01   0.000000e+00
  0.000000e+00   3.800000e+01   0.000000e+00
  0.000000e+00   3.900000e+01   0.000000e+00
  0.000000e+00   4.000000e+01   0.000000e+00
  0.000000e+00   4.100000e+01   0.000000e+00
  0.000000e+00   4.200000e+01   0.000000e+00
  0.000000e+00   4.300000e+01   0.000000e+00
  0.000000e+00   4.400000e+01   0.000000e+00
  0.000000e+00   4.500000e+01   0.000000e+00
  0.000000e+00   4.600000e+01   0.000000e+00
  0.000000e+00   4.700000e+01   0.000000e+00
  0.000000e+00   4.800000e+01   0.000000e+00
  0.000000e+00   4.900000e+01   0.000000e+00
  0.000000e+00   5.000000e+01   0.000000e+00
  0.000000e+00   5.100000e+01   0.000000e+00
  0.000000e+00   5.200000e+01   0.000000e+00
  0.000000e+00   5.300000e+01   0.000000e+00
  0.000000e+00   5.400000e+01   0.000000e+00
  0.000000e+00   5.500000e+01   0.000000e+00
  0.000000e+00   5.600000e+01   0.000000e+00
  0.000000e+00   5.700000e+01   0.000000e+00
  0.000000e+00   5.800000e+01   0.000000e+00
  0.000000e+00   5.900000e+01   0.000000e+00
  0.000000e+00   6.000000e+01   0.000000e+00
  0.000000e+00   6.100000e+01   0.000000e+00
  0.000000e+00   6.200000e+01   0.000000e+00
  0.000000e+00   6.300000e+01   0.000000e+00
  1.000000e+00   0.000000e+00   0.000000e+00
  1.000000e+00   1.000000e+00   0.000000e+00
  1.000000e+00   2.000000e+00   0.000000e+00
  1.000000e+00   3.000000e+00   0.000000e+00
  1.000000e+00   4.000000e+00   0.000000e+00
  1.000000e+00   5.000000e+00   0.000000e+00
  1.000000e+00   6.000000e+00   0.000000e+00
  1.000000e+00   7.000000e+00   0.000000e+00
  1.000000e+00   8.000000e+00   0.000000e+00
  1.000000e+00   9.000000e+00   0.000000e+00
  1.000000e+00   1.000000e+01   0.000000e+00
  1.000000e+00   1.100000e+01   0.000000e+00
  1.000000e+00   1.200000e+01   0.000000e+00
  1.000000e+00   1.300000e+01   0.000000e+00
  1.000000e+00   1.400000e+01   0.000000e+00
  1.000000e+00   1.500000e+01   0.000000e+00
  1.000000e+00   1.600000e+01   0.000000e+00
  1.000000e+00   1.700000e+01   0.000000e+00
  1.000000e+00   1.800000e+01   0.000000e+00
  1.000000e+00   1.900000e+01   0.000000e+00
  1.000000e+00   2.000000e+01   0.000000e+00
  1.000000e+00   2.100000e+01   0.000000e+00
  1.000000e+00   2.200000e+01   0.000000e+00
  1.000000e+00   2.300000e+01   0.000000e+00
  1.000000e+00   2.400000e+01   0.000000e+00
  1.000000e+00   2.500000e+01   0.000000e+00
  1.000000e+00   2.600000e+01   0.000000e+00
  1.000000e+00   2.700000e+01   0.000000e+00
  1.000000e+00   2.800000e+01   0.000000e+00
  1.000000e+00   2.900000e+01   0.000000e+00
  1.000000e+00   3.000000e+01   0.000000e+00
  1.000000e+00   3.100000e+01   0.000000e+00
  1.000000e+00   3.200000e+01   0.000000e+00
  1.000000e+00   3.300000e+01   0.000000e+00
  1.000000e+00   3.400000e+01   0.000000e+00
  1.000000e+00   3.500000e+01   0.000000e+00
  1.000000e+00   3.600000e+01   0.000000e+00
  1.000000e+00   3.700000e+01   0.000000e+00
  1.000000e+00   3.800000e+01   0.000000e+00
  1.000000e+00   3.900000e+01   0.000000e+00
  1.000000e+00   4.000000e+01   0.000000e+00
  1.000000e+00   4.100000e+01   0.000000e+00
  1.000000e+00   4.200000e+01   0.000000e+00
  1.000000e+00   4.300000e+01   0.000000e+00
  1.000000e+00   4.400000e+01   0.000000e+00
  1.000000e+00   4.500000e+01   0.000000e+00
  1.000000e+00   4.600000e+01   0.000000e+00
  1.000000e+00   4.700000e+01   0.000000e+00
  1.000000e+00   4.800000e+01   0.000000e+00
  1.000000e+00   4.900000e+01   0.000000e+00
  1.000000e+00   5.000000e+01   0.000000e+00
  1.000000e+00   5.100000e+01   0.000000e+00
  1.000000e+00   5.200000e+01   0.000000e+00
  1.000000e+00   5.300000e+01   0.000000e+00
  1.000000e+00   5.400000e+01   0.000000e+00
  1.000000e+00   5.500000e+01   0.000000e+00
  1.000000e+00   5.600000e+01   0.000000e+00
  1.000000e+00   5.700000e+01   0.000000e+00
  1.000000e+00   5.800000e+01   0.000000e+00
  1.000000e+00   5.900000e+01   0.000000e+00
  1.000000e+00   6.000000e+01   0.000000e+00
  1.000000e+00   6.100000e+01   0.000000e+00
  1.000000e+00   6.200000e+01   0.000000e+00
  1.000000e+00   6.300000e+01   0.000000e+00
  2.000000e+00   0.000000e+00   0.000000e+00
  2.000000e+00   1.000000e+00   0.000000e+00
  2.000000e+00   2.000000e+00   0.000000e+00
  2.000000e+00   3.000000e+00   0.000000e+00
  2.000000e+00   4.000000e+00   0.000000e+00
  2.000000e+00   5.000000e+00   0.000000e+00
  2.000000e+00   6.000000e+00   0.000000e+00
  2.000000e+00   7.000000e+00   0.000000e+00
  2.000000e+00   8.000000e+00   0.000000e+00
  2.000000e+00   9.000000e+00   0.000000e+00
  2.000000e+00   1.000000e+01   0.000000e+00
  2.000000e+00   1.100000e+01   0.000000e+00
  2.000000e+00   1.200000e+01   0.000000e+00
  2.000000e+00   1.300000e+01   0.000000e+00
  2.000000e+00   1.400000e+01   0.000000e+00
  2.000000e+00   1.500000e+01   0.000000e+00
  2.000000e+00   1.600000e+01   0.000000e+00
  2.000000e+00   1.700000e+01   0.000000e+00
  2.000000e+00   1.800000e+01   0.000000e+00
  2.000000e+00   1.900000e+01   0.000000e+00
  2.000000e+00   2.000000e+01   0.000000e+00
  2.000000e+00   2.100000e+01   0.000000e+00
  2.000000e+00   2.200000e+01   0.000000e+00
  2.000000e+00   2.300000e+01   0.000000e+00
  2.000000e+00   2.400000e+01   0.000000e+00
  2.000000e+00   2.500000e+01   0.000000e+00
  2.000000e+00   2.600000e+01   0.000000e+00
  2.000000e+00   2.700000e+01   0.000000e+00
  2.000000e+00   2.800000e+01   0.000000e+00
  2.000000e+00   2.900000e+01   0.000000e+00
  2.000000e+00   3.000000e+01   0.000000e+00
  2.000000e+00   3.100000e+01   0.000000e+00
  2.000000e+00   3.200000e+01   0.000000e+00
  2.000000e+00   3.300000e+01   0.000000e+00
  2.000000e+00   3.400000e+01   0.000000e+00
  2.000000e+00   3.500000e+01   0.000000e+00
  2.000000e+00   3.600000e+01   0.000000e+00
  2.000000e+00   3.700000e+01   0.000000e+00
  2.000000e+00   3.800000e+01   0.000000e+00
  2.000000e+00   3.900000e+01   0.000000e+00
  2.000000e+00   4.000000e+01   0.000000e+00
  2.000000e+00   4.100000e+01   0.000000e+00
  2.000000e+00   4.200000e+01   0.000000e+00
  2.000000e+00   4.300000e+01   0.000000e+00
  2.000000e+00   4.400000e+01   0.000000e+00
  2.000000e+00   4.500000e+01   0.000000e+00
  2.000000e+00   4.600000e+01   0.000000e+00
  2.000000e+00   4.700000e+01   0.000000e+00
  2.000000e+00   4.800000e+01   0.000000e+00
  2.000000e+00   4.900000e+01   0.000000e+00
  2.000000e+00   5.000000e+01   0.000000e+00
  2.000000e+00   5.100000e+01   0.000000e+00
  2.000000e+00   5.200000e+01   0.000000e+00
  2.000000e+00   5.300000e+01   0.000000e+00
  2.000000e+00   5.400000e+01   0.000000e+00
  2.000000e+00   5.500000e+01   0.000000e+00
  2.000000e+00   5.600000e+01   0.000000e+00
  2.000000e+00   5.700000e+01   0.000000e+00
  2.000000e+00   5.800000e+01   0.000000e+00
  2.000000e+00   5.900000e+01   0.000000e+00
  2.000000e+00   6.000000e+01   0.000000e+00
  2.000000e+00   6.100000e+01   0.000000e+00
  2.000000e+00   6.200000e+01   0.000000e+00
  2.000000e+00   6.300000e+01   0.000000e+00
  3.000000e+00   0.000000e+00   0.000000e+00
  3.000000e+00   1.000000e+00   0.000000e+00
  3.000000e+00   2.000000e+00   0.000000e+00
  3.000000e+00   3.000000e+00   0.000000e+00
  3.000000e+00   4.000000e+00   0.000000e+00
  3.000000e+00   5.000000e+00   0.000000e+00
  3.000000e+00   6.000000e+00   0.000000e+00
  3.000000e+00   7.000000e+00   0.000000e+00
  3.000000e+00   8.000000e+00   0.000000e+00
  3.000000e+00   9.000000e+00   0.000000e+00
  3.000000e+00   1.000000e+01   0.000000e+00
  3.000000e+00   1.100000e+01   0.000000e+00
  3.000000e+00   1.200000e+01   0.000000e+00
  3.000000e+00   1.300000e+01   0.000000e+00
  3.000000e+00   1.400000e+01   0.000000e+00
  3.000000e+00   1.500000e+01   0.000000e+00
  3.000000e+00   1.600000e+01   0.000000e+00
  3.000000e+00   1.700000e+01   0.000000e+00
  3.000000e+00   1.800000e+01   0.000000e+00
  3.000000e+00   1.900000e+01   0.000000e+00
  3.000000e+00   2.000000e+01   0.000000e+00
  3.000000e+00   2.100000e+01   0.000000e+00
  3.000000e+00   2.200000e+01   0.000000e+00
  3.000000e+00   2.300000e+01   0.000000e+00
  3.000000e+00   2.400000e+01   0.000000e+00
  3.000000e+00   2.500000e+01   0.000000e+00
  3.000000e+00   2.600000e+01   0.000000e+00
[...]
POINT_DATA  4096
SCALARS CON float 1
LOOKUP_TABLE default
  1.097256e-01
  3.923297e-01
  8.535512e-01
  9.793270e-01
  9.999000e-01
  9.958481e-01
  9.408430e-01
  6.904058e-01
  2.020891e-01
  5.975739e-02
  3.220969e-02
  2.838871e-02
  2.919670e-02
  3.098587e-02
  3.276806e-02
  3.368906e-02
  3.312002e-02
  3.108830e-02
  2.812226e-02
  2.466168e-02
  2.102781e-02
  1.790280e-02
  1.567142e-02
  1.492367e-02
  1.993783e-02
  5.119243e-02
  1.881840e-01
  5.683740e-01
  8.694231e-01
  9.663529e-01
  9.912768e-01
  9.972652e-01
  9.984212e-01
  9.978508e-01
  9.945682e-01
  9.814820e-01
  9.312551e-01
  7.556784e-01
  3.528358e-01
  9.915586e-02
  3.626882e-02
  2.482812e-02
  2.466858e-02
  2.728771e-02
  3.010913e-02
  3.178688e-02
  3.178028e-02
  3.018800e-02
  2.772972e-02
  2.583011e-02
  2.646766e-02
  3.310222e-02
  5.468678e-02
  1.016711e-01
  1.608206e-01
  1.865262e-01
  1.596539e-01
  1.016803e-01
  5.501731e-02
  3.112927e-02
  2.286081e-02
  2.199358e-02
  2.594771e-02
  4.146820e-02
  7.561195e-02
  2.548599e-01
  6.984477e-01
  9.081246e-01
  9.599299e-01
  9.502318e-01
  8.522100e-01
  5.212427e-01
  1.535373e-01
  5.899775e-02
  5.011866e-02
  6.305658e-02
  7.996843e-02
  9.684546e-02
  1.108372e-01
  1.172283e-01
  1.127706e-01
  9.874393e-02
  7.973256e-02
  5.932692e-02
  3.976963e-02
  2.587675e-02
  1.871865e-02
  1.540263e-02
  1.526392e-02
  2.462607e-02
  7.276918e-02
  2.550368e-01
  6.465872e-01
  8.914588e-01
  9.703473e-01
  9.919735e-01
  9.977952e-01
  9.993288e-01
  9.992237e-01
  9.965038e-01
  9.819654e-01
  9.111437e-01
  6.365625e-01
  1.858716e-01
  5.424470e-02
  2.833527e-02
  2.410711e-02
  2.390830e-02
  2.427937e-02
  2.449104e-02
  2.441093e-02
  2.411393e-02
  2.391439e-02
  2.485377e-02
  3.080032e-02
  5.664960e-02
  1.487124e-01
  3.534412e-01
  5.835414e-01
  6.680847e-01
  5.882093e-01
  3.719025e-01
  1.741736e-01
  6.752921e-02
  3.046168e-02
  2.154251e-02
  2.261546e-02
  3.280947e-02
  4.271895e-02
  1.141919e-01
  3.344526e-01
  6.261705e-01
  7.540959e-01
  7.322493e-01
  5.435613e-01
  2.434699e-01
  9.436209e-02
  7.881722e-02
  1.369969e-01
  2.297069e-01
  3.174435e-01
  3.957238e-01
  4.569383e-01
  4.835147e-01
  4.641843e-01
  4.036889e-01
  3.196435e-01
  2.248979e-01
  1.262451e-01
  5.726891e-02
  2.821429e-02
  1.825529e-02
  1.477680e-02
  1.574936e-02
  2.946788e-02
  9.076306e-02
  2.961287e-01
  6.767389e-01
  8.971841e-01
  9.705122e-01
  9.919715e-01
  9.982683e-01
  9.999000e-01
  9.999000e-01
  9.966610e-01
  9.624916e-01
  7.841926e-01
  2.624981e-01
  7.179714e-02
  3.262749e-02
  2.550903e-02
  2.432197e-02
  2.411714e-02
  2.398351e-02
  2.378246e-02
  2.358919e-02
  2.384633e-02
  2.667218e-02
  4.230961e-02
  1.173227e-01
  3.978690e-01
  7.591809e-01
  9.037553e-01
  9.362960e-01
  9.087298e-01
  7.957593e-01
  5.153724e-01
  1.925253e-01
  5.944670e-02
  2.516151e-02
  1.958692e-02
  2.388102e-02
  2.404070e-02
  4.423305e-02
  9.693978e-02
  1.773740e-01
  2.296154e-01
  2.223869e-01
  1.600311e-01
  9.141897e-02
  8.159012e-02
  1.784532e-01
  4.507994e-01
  7.144588e-01
  8.247004e-01
  8.668014e-01
  8.864415e-01
  8.936012e-01
  8.886234e-01
  8.695061e-01
  8.253959e-01
  7.098889e-01
  4.392871e-01
  1.674777e-01
  5.539143e-02
  2.490855e-02
  1.650713e-02
  1.394580e-02
  1.614685e-02
  3.285907e-02
  1.001522e-01
  3.086751e-01
  6.757103e-01
  8.907262e-01
  9.664870e-01
  9.905304e-01
  9.981258e-01
  9.999000e-01
  9.999000e-01
  9.739698e-01
  8.209672e-01
  2.943819e-01
  8.047719e-02
  3.548377e-02
  2.703488e-02
  2.543966e-02
  2.503767e-02
  2.476466e-02
  2.443436e-02
  2.413730e-02
  2.458990e-02
  2.961422e-02
  5.905730e-02
  2.057499e-01
  6.782293e-01
  9.233094e-01
  9.835764e-01
  9.932654e-01
  9.857935e-01
  9.494494e-01
  8.195251e-01
  4.635370e-01
  1.382644e-01
  3.953257e-02
  1.882436e-02
  1.753250e-02
  1.527426e-02
  2.114000e-02
  3.286020e-02
  4.907432e-02
  6.065900e-02
  6.134438e-02
  5.371799e-02
  5.521283e-02
  1.163587e-01
  3.861102e-01
  7.866805e-01
  9.341726e-01
  9.719875e-01
  9.814760e-01
  9.845498e-01
  9.855724e-01
  9.850087e-01
  9.820446e-01
  9.722397e-01
  9.346041e-01
  7.922886e-01
  4.074615e-01
  1.129232e-01
  3.678296e-02
  1.958474e-02
  1.471638e-02
  1.327698e-02
  1.633654e-02
  3.397788e-02
  9.974563e-02
  2.936612e-01
  6.414003e-01
  8.651833e-01
  9.531486e-01
  9.841555e-01
  9.944340e-01
  9.928024e-01
  9.563701e-01
  7.741335e-01
  2.639646e-01
  7.540472e-02
  3.571841e-02
  2.810005e-02
  2.659781e-02
  2.618235e-02
  2.586028e-02
  2.542741e-02
  2.498533e-02
  2.549085e-02
  3.224649e-02
  7.315103e-02
  2.743335e-01
  8.002875e-01
  9.671098e-01
  9.981041e-01
  9.999000e-01
  9.989144e-01
  9.877171e-01
  9.380904e-01
  7.453184e-01
  3.025205e-01
  7.725290e-02
  2.325254e-02
  1.399623e-02
  1.082647e-02
  1.293543e-02
  1.682635e-02
  2.144463e-02
  2.531290e-02
  2.780130e-02
  3.166354e-02
  5.237602e-02
  1.619978e-01
  5.826210e-01
  9.078732e-01
  9.859344e-01
  9.989576e-01
  9.999000e-01
  9.998474e-01
  9.998177e-01
  9.998963e-01
  9.999000e-01
  9.989126e-01
  9.881815e-01
  9.232629e-01
  6.480663e-01
  1.815826e-01
  5.022541e-02
  2.290745e-02
  1.624504e-02
  1.370893e-02
  1.301336e-02
  1.635464e-02
  3.275238e-02
  8.940071e-02
  2.476429e-01
  5.482678e-01
  7.949298e-01
  9.079412e-01
  9.473046e-01
  9.411337e-01
  8.599247e-01
  5.810360e-01
  1.797158e-01
  5.919709e-02
  3.368746e-02
  2.865070e-02
  2.767361e-02
  2.742311e-02
  2.716757e-02
  2.670506e-02
  2.611560e-02
  2.646135e-02
  3.378324e-02
  7.983953e-02
  3.049174e-01
  8.332551e-01
  9.760871e-01
  9.996183e-01
  9.999000e-01
  9.999000e-01
  9.964411e-01
  9.767987e-01
  8.880492e-01
  5.664236e-01
  1.629306e-01
  3.931918e-02
  1.386909e-02
  9.345778e-03
  9.035287e-03
  1.130572e-02
  1.414316e-02
  1.695901e-02
  1.996794e-02
  2.592361e-02
  5.013328e-02
  1.693436e-01
  6.177269e-01
  9.240292e-01
  9.916069e-01
  9.999000e-01
  9.999000e-01
  9.999000e-01
  9.999000e-01
  9.999000e-01
  9.999000e-01
  9.999000e-01
  9.963574e-01
  9.503391e-01
  7.222879e-01
  2.098739e-01
  5.631178e-02
  2.491379e-02
  1.773003e-02
  1.508158e-02
  1.359986e-02
  1.337450e-02
  1.660023e-02
  3.001547e-02
  7.104843e-02
  1.731113e-01
  3.629644e-01
  5.999140e-01
  7.209484e-01
  7.046726e-01
  5.303351e-01
  2.526483e-01
  8.894267e-02
  4.193167e-02
  3.111855e-02
  2.896670e-02
  2.872886e-02
  2.884330e-02
  2.886803e-02
  2.855812e-02
  2.786759e-02
  2.777637e-02
  3.420484e-02
  7.797912e-02
  2.957497e-01
  8.251589e-01
  9.732098e-01
  9.985019e-01
  9.999000e-01
  9.999000e-01
  9.984591e-01
  9.899789e-01
  9.504223e-01
  7.806151e-01
  3.315302e-01
  8.289171e-02
  2.098278e-02
  1.418842e-02
  7.987862e-03
  8.670252e-03
  1.102844e-02
  1.376968e-02
  1.686743e-02
  2.227670e-02
  4.109614e-02
  1.291025e-01
  4.796707e-01
  8.651098e-01
  9.731137e-01
  9.950478e-01
  9.987444e-01
  9.993202e-01
  9.994817e-01
  9.996796e-01
  9.997780e-01
  9.983660e-01
  9.866723e-01
  9.191909e-01
  6.389678e-01
  1.796477e-01
  5.125252e-02
  2.494640e-02
  1.890844e-02
  1.671157e-02
  1.545844e-02
  1.498830e-02
  1.611567e-02
  2.056475e-02
  3.181156e-02
  5.720828e-02
  1.060661e-01
  1.748859e-01
  2.205936e-01
  2.120483e-01
  1.527766e-01
  8.308233e-02
  4.495948e-02
  3.254268e-02
  2.959195e-02
  2.937791e-02
  2.993996e-02
  3.079360e-02
  3.173004e-02
  3.221867e-02
  3.163958e-02
  3.060348e-02
  3.441587e-02
  6.910958e-02
  2.516190e-01
  7.725163e-01
  9.576862e-01
  9.946939e-01
  9.999000e-01
  9.999000e-01
  9.989172e-01
  9.947686e-01
  9.771594e-01
  8.990782e-01
  6.089413e-01
  1.963988e-01
  4.902226e-02
  4.076651e-02
  1.479036e-02
  9.505671e-03
  1.002425e-02
  1.221726e-02
  1.501726e-02
  1.910389e-02
  3.002287e-02
  7.500311e-02
  2.590649e-01
  6.678025e-01
  8.860309e-01
  9.541250e-01
  9.730421e-01
  9.785571e-01
  9.803883e-01
  9.806217e-01
  9.784750e-01
  9.685276e-01
  9.283265e-01
  7.794245e-01
  3.928710e-01
  1.113553e-01
  3.928570e-02
  2.372366e-02
  1.989472e-02
  1.858087e-02
  1.842337e-02
  2.037750e-02
  2.689415e-02
  3.944840e-02
  5.505022e-02
  7.097775e-02
  8.695067e-02
  9.931067e-02
  9.773557e-02
  7.987752e-02
  5.721075e-02
  3.993331e-02
  3.154710e-02
  2.908306e-02
  2.908033e-02
  3.003936e-02
  3.172089e-02
  3.460612e-02
  3.921077e-02
  4.361689e-02
  4.418040e-02
  4.019528e-02
  3.762661e-02
  5.705664e-02
  1.810934e-01
  6.254444e-01
  9.083064e-01
  9.812920e-01
  9.965834e-01
  9.991009e-01
  9.987288e-01
  9.964867e-01
  9.886334e-01
  9.562613e-01
  8.233569e-01
  4.464909e-01
  1.408530e-01
  1.471430e-01
  5.373476e-02
  2.366158e-02
  1.492225e-02
  1.344923e-02
  1.464604e-02
  1.718379e-02
  2.244586e-02
  3.944210e-02
  1.025585e-01
  2.888729e-01
  5.762548e-01
  7.562759e-01
  8.242130e-01
  8.490180e-01
  8.583066e-01
  8.583895e-01
  8.465554e-01
  8.071312e-01
  6.886784e-01
  4.166076e-01
  1.605581e-01
  5.680778e-02
  2.936834e-02
  2.270843e-02
  2.101471e-02
  2.114901e-02
  2.440170e-02
  3.732020e-02
  7.473426e-02
  1.436707e-01
  2.158464e-01
  2.653048e-01
  2.859742e-01
  2.703535e-01
  2.113077e-01
  1.249438e-01
  6.273203e-02
  3.692021e-02
  2.943368e-02
  2.828458e-02
  2.915886e-02
  3.115488e-02
  3.533693e-02
  4.550414e-02
  6.744036e-02
  9.224703e-02
  9.938078e-02
  8.193821e-02
  5.630708e-02
  5.001059e-02
  1.054992e-01
  3.598426e-01
  7.654419e-01
  9.350141e-01
  9.823814e-01
  9.945066e-01
  9.971098e-01
  9.965930e-01
  9.932497e-01
  9.809854e-01
  9.327403e-01
  7.615708e-01
  3.975573e-01
  4.738760e-01
  2.190519e-01
  9.653927e-02
  4.579137e-02
  2.547455e-02
  1.857406e-02
  1.757613e-02
  1.929959e-02
  2.455308e-02
  4.058353e-02
  8.379128e-02
  1.605053e-01
  2.378395e-01
  2.955743e-01
  3.342857e-01
  3.550619e-01
  3.556034e-01
  3.327184e-01
  2.842879e-01
  2.100142e-01
  1.208500e-01
  5.817324e-02
  3.247807e-02
  2.463020e-02
  2.254456e-02
  2.255835e-02
  2.546182e-02
  3.901032e-02
  9.326044e-02
  2.611425e-01
  5.360713e-01
  7.307768e-01
  8.044637e-01
  8.202393e-01
  7.913939e-01
  6.727557e-01
  3.999729e-01
  1.550088e-01
  5.777052e-02
  3.324069e-02
  2.887380e-02
  2.964056e-02
  3.321958e-02
  4.417654e-02
  8.115491e-02
  1.834410e-01
  3.016433e-01
  3.378146e-01
  2.634707e-01
  1.383022e-01
  6.458309e-02
  6.191532e-02
  1.554632e-01
  4.477195e-01
  7.811008e-01
  9.270069e-01
  9.751214e-01
  9.900846e-01
  9.942813e-01
  9.942542e-01
  9.902942e-01
  9.753947e-01
  9.232379e-01
  7.702847e-01
  8.418210e-01
  6.540623e-01
  3.792600e-01
  1.866898e-01
  8.325566e-02
  3.810723e-02
  2.310794e-02
  1.975892e-02
  2.028090e-02
  2.354814e-02
  3.162870e-02
  4.547233e-02
  6.049258e-02
  7.293298e-02
  8.202926e-02
  8.744854e-02
  8.835757e-02
  8.388149e-02
  7.373999e-02
  5.872247e-02
  4.204093e-02
  3.029288e-02
  2.496907e-02
  2.318688e-02
  2.300839e-02
  2.461951e-02
  3.270954e-02
  7.056023e-02
  2.311979e-01
  6.346272e-01
  8.714262e-01
  9.481190e-01
  9.693240e-01
  9.730075e-01
  9.641549e-01
  9.217085e-01
  7.665328e-01
  3.798901e-01
  1.106227e-01
  4.307016e-02
  3.056995e-02
  3.044751e-02
  3.667437e-02
  6.281165e-02
  1.748562e-01
  5.273554e-01
  7.860859e-01
  8.359851e-01
  7.301016e-01
  3.962918e-01
  1.224805e-01
  5.238289e-02
  6.371308e-02
  1.619931e-01
  4.131997e-01
  7.302137e-01
  8.954127e-01
  9.596667e-01
  9.830703e-01
  9.909185e-01
  9.923535e-01
  9.890589e-01
  9.761287e-01
  9.375103e-01
  9.625253e-01
  9.150886e-01
  8.105503e-01
  6.025532e-01
  3.015543e-01
  1.122783e-01
  4.255311e-02
  2.437987e-02
  2.036349e-02
  1.983038e-02
  2.064487e-02
  2.247592e-02
  2.470653e-02
  2.689575e-02
  2.899808e-02
  3.091153e-02
  3.225062e-02
  3.254685e-02
  3.149703e-02
  2.919933e-02
  2.639082e-02
  2.429028e-02
  2.327116e-02
  2.304008e-02
  2.364849e-02
  2.680122e-02
  4.183173e-02
  1.152345e-01
  4.180456e-01
  8.434720e-01
  9.684123e-01
  9.941409e-01
  9.985939e-01
  9.991219e-01
  9.972190e-01
  9.840902e-01
  9.146389e-01
  6.346596e-01
  1.820040e-01
  5.605923e-02
  3.270417e-02
  3.120763e-02
  4.000065e-02
  8.256942e-02
  2.750942e-01
  7.722779e-01
  9.528872e-01
  9.801814e-01
  9.247386e-01
  6.667151e-01
  1.976826e-01
  5.908276e-02
  3.563282e-02
  5.387794e-02
  1.289600e-01
  3.150920e-01
  6.207548e-01
  8.336787e-01
  9.334888e-01
  9.729843e-01
  9.872378e-01
  9.914285e-01
  9.903372e-01
  9.828675e-01
  9.912306e-01
  9.827979e-01
  9.594213e-01
  8.931027e-01
  7.007134e-01
  3.184498e-01
  9.336968e-02
  3.540979e-02
  2.270454e-02
  1.961789e-02
  1.857929e-02
  1.823692e-02
  1.850803e-02
  1.970389e-02
  2.220014e-02
  2.577694e-02
  2.920130e-02
  3.118411e-02
  3.095245e-02
  2.876294e-02
  2.602458e-02
  2.418826e-02
  2.335447e-02
  2.322755e-02
  2.404051e-02
  2.809455e-02
  4.793172e-02
  1.471177e-01
  5.411804e-01
  9.062291e-01
  9.890665e-01
  9.999000e-01
  9.999000e-01
  9.999000e-01
  9.999000e-01
  9.956710e-01
  9.521940e-01
  7.369917e-01
  2.213993e-01
  6.343944e-02
  3.386696e-02
  3.145735e-02
  4.090928e-02
  8.848399e-02
  3.049201e-01
  8.195601e-01
  9.769317e-01
  9.990869e-01
  9.542616e-01
  7.271999e-01
  2.197333e-01
  6.156694e-02
  2.880163e-02
  2.558552e-02
  3.986745e-02
  8.801910e-02
  2.113891e-01
  4.576440e-01
  7.402421e-01
  8.951863e-01
  9.595386e-01
  9.834634e-01
  9.916501e-01
  9.934892e-01
  9.970561e-01
  9.977841e-01
  9.941022e-01
  9.773558e-01
  9.000680e-01
  6.128760e-01
  1.769384e-01
  5.230370e-02
  2.621894e-02
  2.024683e-02
  1.831889e-02
  1.780754e-02
  1.915313e-02
  2.423296e-02
  3.532469e-02
  5.149703e-02
  6.571473e-02
  7.179853e-02
  6.657494e-02
  5.209268e-02
  3.660778e-02
  2.784280e-02
  2.442178e-02
  2.343978e-02
  2.391991e-02
  2.760027e-02
  4.594558e-02
  1.375225e-01
  5.067509e-01
  8.920815e-01
  9.852914e-01
  9.999000e-01
  9.999000e-01
  9.999000e-01
  9.999000e-01
  9.923709e-01
  9.401039e-01
  7.007689e-01
  2.056395e-01
  6.033809e-02
  3.346208e-02
  3.149310e-02
  3.960890e-02
  7.758452e-02
  2.488829e-01
  7.237343e-01
  9.258224e-01
  9.564372e-01
  8.837975e-01
  5.885273e-01
  1.714109e-01
  5.292060e-02
  2.673967e-02
  2.017727e-02
  1.998293e-02
  2.815798e-02
  5.637722e-02
  1.336561e-01
  3.160161e-01
  6.255612e-01
  8.447950e-01
  9.430568e-01
  9.797068e-01
  9.925883e-01
  9.927697e-01
  9.991146e-01
  9.999000e-01
  9.971699e-01
  9.580428e-01
  7.593241e-01
  2.393287e-01
  6.556438e-02
  2.895417e-02
  2.076956e-02
  1.857092e-02
  1.961659e-02
  2.757143e-02
  5.263731e-02
  1.082515e-01
  1.887846e-01
  2.525799e-01
  2.747346e-01
  2.439322e-01
  1.665050e-01
  8.323549e-02
  4.111392e-02
  2.747717e-02
  2.377837e-02
  2.332326e-02
  2.561559e-02
  3.759301e-02
  9.577571e-02
  3.411939e-01
  7.868303e-01
  9.484633e-01
  9.874215e-01
  9.954765e-01
  9.960148e-01
  9.907408e-01
  9.656673e-01
  8.612578e-01
  5.139177e-01
  1.442848e-01
  4.923422e-02
  3.272311e-02
  3.366670e-02
  4.164668e-02
  6.465397e-02
  1.518524e-01
  4.281154e-01
  6.956782e-01
  7.473336e-01
  6.035663e-01
  2.863756e-01
  9.397287e-02
  4.031568e-02
  2.641164e-02
  2.116130e-02
  1.805719e-02
  1.699599e-02
  2.070729e-02
  3.698799e-02
  8.719952e-02
  2.228401e-01
  5.031705e-01
  7.860624e-01
  9.237859e-01
  9.748398e-01
  9.631215e-01
  9.884036e-01
  9.972569e-01
  9.951869e-01
  9.552970e-01
  7.554627e-01
  2.395509e-01
  6.621714e-02
  2.918610e-02
  2.088009e-02
  1.997506e-02
  2.790364e-02
  6.306833e-02
  1.725136e-01
  3.998705e-01
  6.600776e-01
  7.838276e-01
  8.107381e-01
  7.589229e-01
  5.649588e-01
  2.509659e-01
  8.139970e-02
  3.521851e-02
  2.461118e-02
  2.248796e-02
  2.323799e-02
  2.894612e-02
  5.554718e-02
  1.689759e-01
  5.028122e-01
  8.003454e-01
  9.172662e-01
  9.533315e-01
  9.568960e-01
  9.333733e-01
  8.504037e-01
  6.225546e-01
  2.516427e-01
  7.901224e-02
  3.874024e-02
  3.580065e-02
  4.728639e-02
  6.799318e-02
  8.876751e-02
  1.143896e-01
  1.722230e-01
  2.391774e-01
  2.479883e-01
  1.864708e-01
  9.910349e-02
  5.144015e-02
  3.637023e-02
  3.128068e-02
  2.701426e-02
  2.220173e-02
  1.810350e-02
  1.577510e-02
  1.687189e-02
  2.671838e-02
  6.121167e-02
  1.616152e-01
  3.981444e-01
  7.202063e-01
  8.951962e-01
  8.274899e-01
  9.222748e-01
  9.557305e-01
  9.499585e-01
  8.716545e-01
  5.871347e-01
  1.743642e-01
  5.350075e-02
  2.677565e-02
  2.101606e-02
  2.519694e-02
  5.583309e-02
  1.800611e-01
  4.990422e-01
  7.986748e-01
  9.232926e-01
  9.636619e-01
  9.718188e-01
  9.537971e-01
  8.622794e-01
  5.540699e-01
  1.591945e-01
  4.877549e-02
  2.598286e-02
  2.156037e-02
  2.115753e-02
  2.311092e-02
  3.195562e-02
  6.656213e-02
  1.762425e-01
  3.887917e-01
  6.265745e-01
  7.420581e-01
  7.556081e-01
  6.775942e-01
  4.731933e-01
  2.359920e-01
  9.325676e-02
  4.382897e-02
  3.649553e-02
  5.310941e-02
  1.094097e-01
  2.042394e-01
  2.637027e-01
  2.469834e-01
  1.716256e-01
  1.111647e-01
  8.518941e-02
  6.611402e-02
  5.063112e-02
  4.761671e-02
  5.436489e-02
  5.797451e-02
  5.044279e-02
  3.629567e-02
  2.505458e-02
  1.875702e-02
  1.554450e-02
  1.534026e-02
  2.166340e-02
  4.612025e-02
  1.203365e-01
  3.072121e-01
  6.178883e-01
  4.068578e-01
  6.366295e-01
  7.443670e-01
  7.303704e-01
  5.643058e-01
  2.665634e-01
  8.804971e-02
  3.652727e-02
  2.345722e-02
  2.250648e-02
  3.975530e-02
  1.289474e-01
  4.385246e-01
  8.076618e-01
  9.471542e-01
  9.866726e-01
  9.973254e-01
  9.996003e-01
  9.940158e-01
  9.513841e-01
  7.485168e-01
  2.324200e-01
  6.148430e-02
  2.687876e-02
  2.046692e-02
  1.946610e-02
  1.990469e-02
  2.224338e-02
  3.048819e-02
  5.439656e-02
  1.032983e-01
  1.687790e-01
  2.141655e-01
  2.213169e-01
  1.882595e-01
  1.264859e-01
  7.044330e-02
  4.074922e-02
  3.332605e-02
  4.519502e-02
  1.068102e-01
  3.274210e-01
  6.472905e-01
  7.685356e-01
  7.025198e-01
  4.187756e-01
  1.458213e-01
  6.418808e-02
  4.703514e-02
  5.415555e-02
  9.173995e-02
  1.550424e-01
  1.890728e-01
  1.587256e-01
  9.166095e-02
  4.492937e-02
  2.624633e-02
  1.903032e-02
  1.577284e-02
  1.512705e-02
  1.936928e-02
  3.636391e-02
  8.586507e-02
  2.026351e-01
  1.045339e-01
  1.719248e-01
  2.178369e-01
  2.153473e-01
  1.595159e-01
  8.442356e-02
  4.127609e-02
  2.572198e-02
  2.134831e-02
  2.721376e-02
  7.152199e-02
  2.745499e-01
  7.263970e-01
  9.336419e-01
  9.867262e-01
  9.984254e-01
  9.999000e-01
  9.999000e-01
  9.989787e-01
  9.706423e-01
  8.086579e-01
  2.673847e-01
  6.689463e-02
  2.636972e-02
  1.912896e-02
  1.802456e-02
  1.809264e-02
  1.868423e-02
  2.044083e-02
  2.501848e-02
  3.395222e-02
  4.584224e-02
  5.472262e-02
  5.660139e-02
  5.092105e-02
  4.057874e-02
  3.178802e-02
  2.851430e-02
  3.317437e-02
  6.102506e-02
  1.923976e-01
  6.337684e-01
  9.015615e-01
  9.613858e-01
  9.222610e-01
  7.003770e-01
  2.303353e-01
  7.721063e-02
  5.583935e-02
  1.000730e-01
  2.723918e-01
  5.360999e-01
  6.557767e-01
  5.608478e-01
  2.982635e-01
  1.033079e-01
  4.151770e-02
  2.463195e-02
  1.892902e-02
  1.634374e-02
  1.573965e-02
  1.851951e-02
  2.885573e-02
  5.471813e-02
  3.358996e-02
  4.659078e-02
  5.638388e-02
  5.708537e-02
  4.752746e-02
  3.400619e-02
  2.489853e-02
  2.065868e-02
  2.093618e-02
  3.635590e-02
  1.266230e-01
  4.968365e-01
  8.726226e-01
  9.756653e-01
  9.967988e-01
  9.999000e-01
  9.999000e-01
  9.999000e-01
  9.980582e-01
  9.698653e-01
  8.083963e-01
  2.631856e-01
  6.405463e-02
  2.440928e-02
  1.761075e-02
  1.675081e-02
  1.691149e-02
  1.728726e-02
  1.792558e-02
  1.915526e-02
  2.123348e-02
  2.383646e-02
  2.596209e-02
  2.687118e-02
  2.647386e-02
  2.542626e-02
  2.504479e-02
  2.676267e-02
  3.454488e-02
  6.984987e-02
  2.358139e-01
  7.434465e-01
  9.565312e-01
  9.958824e-01
  9.646444e-01
  7.781400e-01
  2.667384e-01
  8.735964e-02
  7.525127e-02