# vtk DataFile Version 2.0
time_10.vtk
ASCII
DATASET STRUCTURED_GRID
DIMENSIONS    64    64     1
POINTS    4096 float
  0.000000e+00   0.000000e+00   0.000000e+00
  0.000000e+00   1.000000e+00   0.000000e+00
  0.000000e+00   2.000000e+00   0.000000e+00
  0.000000e+00   3.000000e+00   0.000000e+00
  0.000000e+00   4.000000e+00   0.000000e+00
  0.000000e+00   5.000000e+00   0.000000e+00
  0.000000e+00   6.000000e+00   0.000000e+00
  0.000000e+00   7.000000e+00   0.000000e+00
  0.000000e+00   8.000000e+00   0.000000e+00
  0.000000e+00   9.000000e+00   0.000000e+00
  0.000000e+00   1.000000e+01   0.000000e+00
  0.000000e+00   1.100000e+01   0.000000e+00
  0.000000e+00   1.200000e+01   0.000000e+00
  0.000000e+00   1.300000e+01   0.000000e+00
  0.000000e+00   1.400000e+01   0.000000e+00
  0.000000e+00   1.500000e+01   0.000000e+00
  0.000000e+00   1.600000e+01   0.000000e+00
  0.000000e+00   1.700000e+01   0.000000e+00
  0.000000e+00   1.800000e+01   0.000000e+00
  0.000000e+00   1.900000e+01   0.000000e+00
  0.000000e+00   2.000000e+01   0.000000e+00
  0.000000e+00   2.100000e+01   0.000000e+00
  0.000000e+00   2.200000e+01   0.000000e+00
  0.000000e+00   2.300000e+01   0.000000e+00
  0.000000e+00   2.400000e+01   0.000000e+00
  0.000000e+00   2.500000e+01   0.000000e+00
  0.000000e+00   2.600000e+01   0.000000e+00
  0.000000e+00   2.700000e+01   0.000000e+00
  0.000000e+00   2.800000e+01   0.000000e+00
  0.000000e+00   2.900000e+01   0.000000e+00
  0.000000e+00   3.000000e+01   0.000000e+00
  0.000000e+00   3.100000e+01   0.000000e+00
  0.000000e+00   3.200000e+01   0.000000e+00
  0.000000e+00   3.300000e+01   0.000000e+00
  0.000000e+00   3.400000e+01   0.000000e+00
  0.000000e+00   3.500000e+01   0.000000e+00
  0.000000e+00   3.600000e+01   0.000000e+00
  0.000000e+00   3.700000e+01   0.000000e+00
  0.000000e+00   3.800000e+01   0.000000e+00
  0.000000e+00   3.900000e+01   0.000000e+00
  0.000000e+00   4.000000e+01   0.000000e+00
  0.000000e+00   4.100000e+01   0.000000e+00
  0.000000e+00   4.200000e+01   0.000000e+00
  0.000000e+00   4.300000e+01   0.000000e+00
  0.000000e+00   4.400000e+01   0.000000e+00
  0.000000e+00   4.500000e+01   0.000000e+00
  0.000000e+00   4.600000e+01   0.000000e+00
  0.000000e+00   4.700000e+01   0.000000e+00
  0.000000e+00   4.800000e+01   0.000000e+00
  0.000000e+00   4.900000e+01   0.000000e+00
  0.000000e+00   5.000000e+01   0.000000e+00
  0.000000e+00   5.100000e+01   0.000000e+00
  0.000000e+00   5.200000e+01   0.000000e+00
  0.000000e+00   5.300000e+01   0.000000e+00
  0.000000e+00   5.400000e+01   0.000000e+00
  0.000000e+00   5.500000e+01   0.000000e+00
  0.000000e+00   5.600000e+01   0.000000e+00
  0.000000e+00   5.700000e+01   0.000000e+00
  0.000000e+00   5.800000e+01   0.000000e+00
  0.000000e+00   5.900000e+01   0.000000e+00
  0.000000e+00   6.000000e+01   0.000000e+00
  0.000000e+00   6.100000e+01   0.000000e+00
  0.000000e+00   6.200000e+01   0.000000e+00
  0.000000e+00   6.300000e+01   0.000000e+00
  1.000000e+00   0.000000e+00   0.000000e+00
  1.000000e+00   1.000000e+00   0.000000e+00
  1.000000e+00   2.000000e+00   0.000000e+00
  1.000000e+00   3.000000e+00   0.000000e+00
  1.000000e+00   4.000000e+00   0.000000e+00
  1.000000e+00   5.000000e+00   0.000000e+00
  1.000000e+00   6.000000e+00   0.000000e+00
  1.000000e+00   7.000000e+00   0.000000e+00
  1.000000e+00   8.000000e+00   0.000000e+00
  1.000000e+00   9.000000e+00   0.000000e+00
  1.000000e+00   1.000000e+01   0.000000e+00
  1.000000e+00   1.100000e+01   0.000000e+00
  1.000000e+00   1.200000e+01   0.000000e+00
  1.000000e+00   1.300000e+01   0.000000e+00
  1.000000e+00   1.400000e+01   0.000000e+00
  1.000000e+00   1.500000e+01   0.000000e+00
  1.000000e+00   1.600000e+01   0.000000e+00
  1.000000e+00   1.700000e+01   0.000000e+00
  1.000000e+00   1.800000e+01   0.000000e+00
  1.000000e+00   1.900000e+01   0.000000e+00
  1.000000e+00   2.000000e+01   0.000000e+00
  1.000000e+00   2.100000e+01   0.000000e+00
  1.000000e+00   2.200000e+01   0.000000e+00
  1.000000e+00   2.300000e+01   0.000000e+00
  1.000000e+00   2.400000e+01   0.000000e+00
  1.000000e+00   2.500000e+01   0.000000e+00
  1.000000e+00   2.600000e+01   0.000000e+00
  1.000000e+00   2.700000e+01   0.000000e+00
  1.000000e+00   2.800000e+01   0.000000e+00
  1.000000e+00   2.900000e+01   0.000000e+00
  1.000000e+00   3.000000e+01   0.000000e+00
  1.000000e+00   3.100000e+01   0.000000e+00
  1.000000e+00   3.200000e+01   0.000000e+00
  1.000000e+00   3.300000e+01   0.000000e+00
  1.000000e+00   3.400000e+01   0.000000e+00
  1.000000e+00   3.500000e+01   0.000000e+00
  1.000000e+00   3.600000e+01   0.000000e+00
  1.000000e+00   3.700000e+01   0.000000e+00
  1.000000e+00   3.800000e+01   0.000000e+00
  1.000000e+00   3.900000e+01   0.000000e+00
  1.000000e+00   4.000000e+01   0.000000e+00
  1.000000e+00   4.100000e+01   0.000000e+00
  1.000000e+00   4.200000e+01   0.000000e+00
  1.000000e+00   4.300000e+01   0.000000e+00
  1.000000e+00   4.400000e+01   0.000000e+00
  1.000000e+00   4.500000e+01   0.000000e+00
  1.000000e+00   4.600000e+01   0.000000e+00
  1.000000e+00   4.700000e+01   0.000000e+00
  1.000000e+00   4.800000e+01   0.000000e+00
  1.000000e+00   4.900000e+01   0.000000e+00
  1.000000e+00   5.000000e+01   0.000000e+00
  1.000000e+00   5.100000e+01   0.000000e+00
  1.000000e+00   5.200000e+01   0.000000e+00
  1.000000e+00   5.300000e+01   0.000000e+00
  1.000000e+00   5.400000e+01   0.000000e+00
  1.000000e+00   5.500000e+01   0.000000e+00
  1.000000e+00   5.600000e+01   0.000000e+00
  1.000000e+00   5.700000e+01   0.000000e+00
  1.000000e+00   5.800000e+01   0.000000e+00
  1.000000e+00   5.900000e+01   0.000000e+00
  1.000000e+00   6.000000e+01   0.000000e+00
  1.000000e+00   6.100000e+01   0.000000e+00
  1.000000e+00   6.200000e+01   0.000000e+00
  1.000000e+00   6.300000e+01   0.000000e+00
  2.000000e+00   0.000000e+00   0.000000e+00
  2.000000e+00   1.000000e+00   0.000000e+00
  2.000000e+00   2.000000e+00   0.000000e+00
  2.000000e+00   3.000000e+00   0.000000e+00
  2.000000e+00   4.000000e+00   0.000000e+00
  2.000000e+00   5.000000e+00   0.000000e+00
  2.000000e+00   6.000000e+00   0.000000e+00
  2.000000e+00   7.000000e+00   0.000000e+00
  2.000000e+00   8.000000e+00   0.000000e+00
  2.000000e+00   9.000000e+00   0.000000e+00
  2.000000e+00   1.000000e+01   0.000000e+00
  2.000000e+00   1.100000e+01   0.000000e+00
  2.000000e+00   1.200000e+01   0.000000e+00
  2.000000e+00   1.300000e+01   0.000000e+00
  2.000000e+00   1.400000e+01   0.000000e+00
  2.000000e+00   1.500000e+01   0.000000e+00
  2.000000e+00   1.600000e+01   0.000000e+00
  2.000000e+00   1.700000e+01   0.000000e+00
  2.000000e+00   1.800000e+01   0.000000e+00
  2.000000e+00   1.900000e+01   0.000000e+00
  2.000000e+00   2.000000e+01   0.000000e+00
  2.000000e+00   2.100000e+01   0.000000e+00
  2.000000e+00   2.200000e+01   0.000000e+00
  2.000000e+00   2.300000e+01   0.000000e+00
  2.000000e+00   2.400000e+01   0.000000e+00
  2.000000e+00   2.500000e+01   0.000000e+00
  2.000000e+00   2.600000e+01   0.000000e+00
  2.000000e+00   2.700000e+01   0.000000e+00
  2.000000e+00   2.800000e+01   0.000000e+00
  2.000000e+00   2.900000e+01   0.000000e+00
  2.000000e+00   3.000000e+01   0.000000e+00
  2.000000e+00   3.100000e+01   0.000000e+00
  2.000000e+00   3.200000e+01   0.000000e+00
  2.000000e+00   3.300000e+01   0.000000e+00
  2.000000e+00   3.400000e+01   0.000000e+00
  2.000000e+00   3.500000e+01   0.000000e+00
  2.000000e+00   3.600000e+01   0.000000e+00
  2.000000e+00   3.700000e+01   0.000000e+00
  2.000000e+00   3.800000e+01   0.000000e+00
  2.000000e+00   3.900000e+01   0.000000e+00
  2.000000e+00   4.000000e+01   0.000000e+00
  2.000000e+00   4.100000e+01   0.000000e+00
  2.000000e+00   4.200000e+01   0.000000e+00
  2.000000e+00   4.300000e+01   0.000000e+00
  2.000000e+00   4.400000e+01   0.000000e+00
  2.000000e+00   4.500000e+01   0.000000e+00
  2.000000e+00   4.600000e+01   0.000000e+00
  2.000000e+00   4.700000e+01   0.000000e+00
  2.000000e+00   4.800000e+01   0.000000e+00
  2.000000e+00   4.900000e+01   0.000000e+00
  2.000000e+00   5.000000e+01   0.000000e+00
  2.000000e+00   5.100000e+01   0.000000e+00
  2.000000e+00   5.200000e+01   0.000000e+00
  2.000000e+00   5.300000e+01   0.000000e+00
  2.000000e+00   5.400000e+01   0.000000e+00
  2.000000e+00   5.500000e+01   0.000000e+00
  2.000000e+00   5.600000e+01   0.000000e+00
  2.000000e+00   5.700000e+01   0.000000e+00
  2.000000e+00   5.800000e+01   0.000000e+00
  2.000000e+00   5.900000e+01   0.000000e+00
  2.000000e+00   6.000000e+01   0.000000e+00
  2.000000e+00   6.100000e+01   0.000000e+00
  2.000000e+00   6.200000e+01   0.000000e+00
  2.000000e+00   6.300000e+01   0.000000e+00
  3.000000e+00   0.000000e+00   0.000000e+00
  3.000000e+00   1.000000e+00   0.000000e+00
  3.000000e+00   2.000000e+00   0.000000e+00
  3.000000e+00   3.000000e+00   0.000000e+00
  3.000000e+00   4.000000e+00   0.000000e+00
  3.000000e+00   5.000000e+00   0.000000e+00
  3.000000e+00   6.000000e+00   0.000000e+00
  3.000000e+00   7.000000e+00   0.000000e+00
  3.000000e+00   8.000000e+00   0.000000e+00
  3.000000e+00   9.000000e+00   0.000000e+00
  3.000000e+00   1.000000e+01   0.000000e+00
  3.000000e+00   1.100000e+01   0.000000e+00
  3.000000e+00   1.200000e+01   0.000000e+00
  3.000000e+00   1.300000e+01   0.000000e+00
  3.000000e+00   1.400000e+01   0.000000e+00
  3.000000e+00   1.500000e+01   0.000000e+00
  3.000000e+00   1.600000e+01   0.000000e+00
  3.000000e+00   1.700000e+01   0.000000e+00
  3.000000e+00   1.800000e+01   0.000000e+00
  3.000000e+00   1.900000e+01   0.000000e+00
  3.000000e+00   2.000000e+01   0.000000e+00
  3.000000e+00   2.100000e+01   0.000000e+00
  3.000000e+00   2.200000e+01   0.000000e+00
  3.000000e+00   2.300000e+01   0.000000e+00
  3.000000e+00   2.400000e+01   0.000000e+00
  3.000000e+00   2.500000e+01   0.000000e+00
  3.000000e+00   2.600000e+01   0.000000e+00
[...]
POINT_DATA  4096
SCALARS CON float 1
LOOKUP_TABLE default
  3.927657e-01
  3.919044e-01
  3.961639e-01
  4.013734e-01
  4.051534e-01
  4.074319e-01
  4.065458e-01
  4.010418e-01
  3.946335e-01
  3.929591e-01
  3.961005e-01
  3.995167e-01
  4.008215e-01
  4.011341e-01
  4.016153e-01
  4.016982e-01
  3.996892e-01
  3.954100e-01
  3.921712e-01
  3.934576e-01
  3.978257e-01
  3.999458e-01
  3.974060e-01
  3.935448e-01
  3.926289e-01
  3.953444e-01
  3.990422e-01
  4.006940e-01
  4.000587e-01
  3.996404e-01
  4.013503e-01
  4.046972e-01
  4.077851e-01
  4.084259e-01
  4.054639e-01
  4.006536e-01
  3.972612e-01
  3.962551e-01
  3.965578e-01
  3.983189e-01
  4.019730e-01
  4.048139e-01
  4.032082e-01
  3.983620e-01
  3.955140e-01
  3.972709e-01
  4.010065e-01
  4.026024e-01
  4.008304e-01
  3.978159e-01
  3.961355e-01
  3.964757e-01
  3.981357e-01
  4.002171e-01
  4.017302e-01
  4.021878e-01
  4.022390e-01
  4.021145e-01
  4.007836e-01
  3.987038e-01
  3.987409e-01
  4.014543e-01
  4.024454e-01
  3.983103e-01
  3.916158e-01
  3.911910e-01
  3.955164e-01
  4.015216e-01
  4.061815e-01
  4.078330e-01
  4.054718e-01
  3.998299e-01
  3.946208e-01
  3.935315e-01
  3.959900e-01
  3.985079e-01
  3.995167e-01
  4.002130e-01
  4.015557e-01
  4.025642e-01
  4.014950e-01
  3.985907e-01
  3.968341e-01
  3.985298e-01
  4.018577e-01
  4.025228e-01
  3.990792e-01
  3.947312e-01
  3.935167e-01
  3.964889e-01
  4.008000e-01
  4.022230e-01
  4.002705e-01
  3.988900e-01
  4.006355e-01
  4.038342e-01
  4.064516e-01
  4.084511e-01
  4.094557e-01
  4.081641e-01
  4.044184e-01
  3.996878e-01
  3.964309e-01
  3.970659e-01
  4.013600e-01
  4.051813e-01
  4.043739e-01
  4.000559e-01
  3.975210e-01
  3.997329e-01
  4.039724e-01
  4.052531e-01
  4.020873e-01
  3.976450e-01
  3.954497e-01
  3.960345e-01
  3.981641e-01
  4.008425e-01
  4.031439e-01
  4.042130e-01
  4.040975e-01
  4.029953e-01
  4.005863e-01
  3.978415e-01
  3.972465e-01
  3.990009e-01
  3.994443e-01
  3.959908e-01
  3.947750e-01
  3.940496e-01
  3.970867e-01
  4.021121e-01
  4.057443e-01
  4.055779e-01
  4.021490e-01
  3.981895e-01
  3.962518e-01
  3.969680e-01
  3.986278e-01
  3.988560e-01
  3.973695e-01
  3.962804e-01
  3.973172e-01
  3.997411e-01
  4.015772e-01
  4.022964e-01
  4.031177e-01
  4.047751e-01
  4.061923e-01
  4.056806e-01
  4.030804e-01
  4.001354e-01
  3.990138e-01
  4.007313e-01
  4.035096e-01
  4.036846e-01
  4.007589e-01
  3.985410e-01
  3.989841e-01
  3.998469e-01
  4.002782e-01
  4.027642e-01
  4.075597e-01
  4.106122e-01
  4.084910e-01
  4.023065e-01
  3.965463e-01
  3.952025e-01
  3.984540e-01
  4.027175e-01
  4.042657e-01
  4.030707e-01
  4.025195e-01
  4.050411e-01
  4.087455e-01
  4.092980e-01
  4.051986e-01
  3.995752e-01
  3.961411e-01
  3.955995e-01
  3.968096e-01
  3.989664e-01
  4.013038e-01
  4.026364e-01
  4.023526e-01
  4.006892e-01
  3.982597e-01
  3.964190e-01
  3.967391e-01
  3.987883e-01
  3.997833e-01
  3.978518e-01
  4.007809e-01
  3.982523e-01
  3.985540e-01
  4.014226e-01
  4.032234e-01
  4.010410e-01
  3.969371e-01
  3.952767e-01
  3.972987e-01
  4.006546e-01
  4.023566e-01
  4.008540e-01
  3.970571e-01
  3.940755e-01
  3.943432e-01
  3.971162e-01
  4.000057e-01
  4.018972e-01
  4.029405e-01
  4.032248e-01
  4.030488e-01
  4.032774e-01
  4.042963e-01
  4.051541e-01
  4.048302e-01
  4.039370e-01
  4.031118e-01
  4.012741e-01
  3.983790e-01
  3.966647e-01
  3.964462e-01
  3.953953e-01
  3.941058e-01
  3.965169e-01
  4.030111e-01
  4.084606e-01
  4.083301e-01
  4.033323e-01
  3.977372e-01
  3.950891e-01
  3.959509e-01
  3.988250e-01
  4.019053e-01
  4.042208e-01
  4.062106e-01
  4.088034e-01
  4.112493e-01
  4.110042e-01
  4.069872e-01
  4.015789e-01
  3.979028e-01
  3.966023e-01
  3.966045e-01
  3.973483e-01
  3.986326e-01
  3.995182e-01
  3.989588e-01
  3.971265e-01
  3.955109e-01
  3.957938e-01
  3.983859e-01
  4.018988e-01
  4.041236e-01
  4.035808e-01
  4.047123e-01
  4.000531e-01
  3.982543e-01
  4.002306e-01
  4.015427e-01
  3.981403e-01
  3.929484e-01
  3.919794e-01
  3.964084e-01
  4.023925e-01
  4.058915e-01
  4.051657e-01
  4.012565e-01
  3.977704e-01
  3.976095e-01
  3.997304e-01
  4.011409e-01
  4.006402e-01
  3.986857e-01
  3.960009e-01
  3.942843e-01
  3.960086e-01
  4.015074e-01
  4.071445e-01
  4.084379e-01
  4.050898e-01
  4.003517e-01
  3.965034e-01
  3.942023e-01
  3.937427e-01
  3.939212e-01
  3.928420e-01
  3.918043e-01
  3.942492e-01
  3.999971e-01
  4.048141e-01
  4.058058e-01
  4.039192e-01
  4.014307e-01
  3.992785e-01
  3.974535e-01
  3.968441e-01
  3.985490e-01
  4.018107e-01
  4.047233e-01
  4.064650e-01
  4.070826e-01
  4.060782e-01
  4.033118e-01
  4.004142e-01
  3.992173e-01
  3.993956e-01
  3.994164e-01
  3.991324e-01
  3.995213e-01
  4.002656e-01
  3.996123e-01
  3.971406e-01
  3.951773e-01
  3.963111e-01
  4.003946e-01
  4.050866e-01
  4.081876e-01
  4.081987e-01
  4.034423e-01
  3.981059e-01
  3.964985e-01
  3.999558e-01
  4.028466e-01
  3.994941e-01
  3.928088e-01
  3.902452e-01
  3.942346e-01
  4.013681e-01
  4.072768e-01
  4.091408e-01
  4.068780e-01
  4.040270e-01
  4.041026e-01
  4.060287e-01
  4.061129e-01
  4.029455e-01
  3.977030e-01
  3.921144e-01
  3.886987e-01
  3.906210e-01
  3.984211e-01
  4.072991e-01
  4.104381e-01
  4.062425e-01
  3.993825e-01
  3.945531e-01
  3.928136e-01
  3.929891e-01
  3.934033e-01
  3.931850e-01
  3.934862e-01
  3.957969e-01
  3.991367e-01
  4.014421e-01
  4.027687e-01
  4.045239e-01
  4.064849e-01
  4.063859e-01
  4.029932e-01
  3.987707e-01
  3.973148e-01
  3.988587e-01
  4.006076e-01
  4.006230e-01
  3.991741e-01
  3.971826e-01
  3.957033e-01
  3.961813e-01
  3.989867e-01
  4.020540e-01
  4.030266e-01
  4.025410e-01
  4.031613e-01
  4.050420e-01
  4.050647e-01
  4.014785e-01
  3.972745e-01
  3.966676e-01
  4.000372e-01
  4.045357e-01
  4.075811e-01
  4.074605e-01
  3.989369e-01
  3.944986e-01
  3.943932e-01
  4.000253e-01
  4.053751e-01
  4.036813e-01
  3.968367e-01
  3.923083e-01
  3.936406e-01
  3.990168e-01
  4.049705e-01
  4.080452e-01
  4.068403e-01
  4.045265e-01
  4.053046e-01
  4.084556e-01
  4.095967e-01
  4.065600e-01
  4.007346e-01
  3.943841e-01
  3.899608e-01
  3.905564e-01
  3.974308e-01
  4.065720e-01
  4.107819e-01
  4.073839e-01
  4.009537e-01
  3.968596e-01
  3.958648e-01
  3.958878e-01
  3.957752e-01
  3.959910e-01
  3.970666e-01
  3.983230e-01
  3.985273e-01
  3.981298e-01
  3.994717e-01
  4.037456e-01
  4.088189e-01
  4.106786e-01
  4.074627e-01
  4.020245e-01
  3.987897e-01
  3.987057e-01
  3.992304e-01
  3.981707e-01
  3.954740e-01
  3.923542e-01
  3.907757e-01
  3.926419e-01
  3.974714e-01
  4.017483e-01
  4.026710e-01
  4.019228e-01
  4.033684e-01
  4.072591e-01
  4.090604e-01
  4.053782e-01
  3.990865e-01
  3.957710e-01
  3.970665e-01
  4.003820e-01
  4.028461e-01
  4.025923e-01
  3.956135e-01
  3.921755e-01
  3.925283e-01
  3.985357e-01
  4.055291e-01
  4.070698e-01
  4.031840e-01
  3.989912e-01
  3.975408e-01
  3.986884e-01
  4.011094e-01
  4.021970e-01
  4.001499e-01
  3.977149e-01
  3.992943e-01
  4.043929e-01
  4.080486e-01
  4.072471e-01
  4.033456e-01
  3.987259e-01
  3.949118e-01
  3.939700e-01
  3.978145e-01
  4.044574e-01
  4.080951e-01
  4.057877e-01
  4.012317e-01
  3.991165e-01
  3.993342e-01
  3.993003e-01
  3.988189e-01
  3.994263e-01
  4.006806e-01
  4.001890e-01
  3.972844e-01
  3.947017e-01
  3.956832e-01
  4.003581e-01
  4.056434e-01
  4.078983e-01
  4.058574e-01
  4.019013e-01
  3.995454e-01
  3.997093e-01
  4.006410e-01
  4.005293e-01
  3.986381e-01
  3.953055e-01
  3.925732e-01
  3.929900e-01
  3.961639e-01
  3.983689e-01
  3.973054e-01
  3.955324e-01
  3.972315e-01
  4.025933e-01
  4.068125e-01
  4.053647e-01
  3.995857e-01
  3.948601e-01
  3.941719e-01
  3.961833e-01
  3.982453e-01
  3.983277e-01
  3.961115e-01
  3.928646e-01
  3.917292e-01
  3.955377e-01
  4.022221e-01
  4.069515e-01
  4.079782e-01
  4.067931e-01
  4.044893e-01
  4.019381e-01
  4.001697e-01
  3.981961e-01
  3.945894e-01
  3.917706e-01
  3.937895e-01
  3.999502e-01
  4.049346e-01
  4.055079e-01
  4.035218e-01
  4.016163e-01
  3.999006e-01
  3.983609e-01
  3.987898e-01
  4.014711e-01
  4.030202e-01
  4.010499e-01
  3.982256e-01
  3.979402e-01
  3.991617e-01
  3.993445e-01
  3.994274e-01
  4.014964e-01
  4.037219e-01
  4.021698e-01
  3.969350e-01
  3.926149e-01
  3.926858e-01
  3.961402e-01
  3.996724e-01
  4.010062e-01
  3.999262e-01
  3.979790e-01
  3.971346e-01
  3.980250e-01
  3.999452e-01
  4.019545e-01
  4.027883e-01
  4.012605e-01
  3.984068e-01
  3.968940e-01
  3.969345e-01
  3.957471e-01
  3.922486e-01
  3.892995e-01
  3.902900e-01
  3.954650e-01
  4.014015e-01
  4.035352e-01
  4.005081e-01
  3.957197e-01
  3.933407e-01
  3.942623e-01
  3.965606e-01
  3.976958e-01
  4.000699e-01
  3.969239e-01
  3.937371e-01
  3.940947e-01
  3.982928e-01
  4.034983e-01
  4.074140e-01
  4.091166e-01
  4.080476e-01
  4.052704e-01
  4.027440e-01
  4.000594e-01
  3.960182e-01
  3.930117e-01
  3.947931e-01
  4.003668e-01
  4.043960e-01
  4.041830e-01
  4.026625e-01
  4.030204e-01
  4.039460e-01
  4.027443e-01
  4.002632e-01
  3.988689e-01
  3.980518e-01
  3.963489e-01
  3.951253e-01
  3.960045e-01
  3.971970e-01
  3.969016e-01
  3.975558e-01
  4.017056e-01
  4.061302e-01
  4.052308e-01
  3.992011e-01
  3.938367e-01
  3.929544e-01
  3.950428e-01
  3.968722e-01
  3.971837e-01
  3.963723e-01
  3.952005e-01
  3.944490e-01
  3.945994e-01
  3.959534e-01
  3.987996e-01
  4.021540e-01
  4.036766e-01
  4.027787e-01
  4.013744e-01
  4.000604e-01
  3.972854e-01
  3.931575e-01
  3.901312e-01
  3.900155e-01
  3.931890e-01
  3.987557e-01
  4.033076e-01
  4.028623e-01
  3.980658e-01
  3.939845e-01
  3.940671e-01
  3.972555e-01
  4.001572e-01
  4.047439e-01
  4.027648e-01
  3.989844e-01
  3.966554e-01
  3.972131e-01
  3.994957e-01
  4.019779e-01
  4.036258e-01
  4.038345e-01
  4.035664e-01
  4.039415e-01
  4.034731e-01
  4.006480e-01
  3.980736e-01
  3.994473e-01
  4.036050e-01
  4.055906e-01
  4.036846e-01
  4.018885e-01
  4.038302e-01
  4.070724e-01
  4.064285e-01
  4.015228e-01
  3.966459e-01
  3.943707e-01
  3.942033e-01
  3.956574e-01
  3.978651e-01
  3.981779e-01
  3.960023e-01
  3.956681e-01
  4.006211e-01
  4.070638e-01
  4.081016e-01
  4.031836e-01
  3.982389e-01
  3.973372e-01
  3.989469e-01
  3.999259e-01
  3.994926e-01
  3.984169e-01
  3.971505e-01
  3.957606e-01
  3.943282e-01
  3.935599e-01
  3.949921e-01
  3.987886e-01
  4.023793e-01
  4.037581e-01
  4.037769e-01
  4.031645e-01
  4.013592e-01
  3.991263e-01
  3.978185e-01
  3.970822e-01
  3.971714e-01
  4.000456e-01
  4.045407e-01
  4.053532e-01
  4.006079e-01
  3.953596e-01
  3.947790e-01
  3.986042e-01
  4.030400e-01
  4.065459e-01
  4.068548e-01
  4.046692e-01
  4.016994e-01
  3.994997e-01
  3.981854e-01
  3.973473e-01
  3.967360e-01
  3.965467e-01
  3.978641e-01
  4.007248e-01
  4.024802e-01
  4.014341e-01
  4.002265e-01
  4.019618e-01
  4.050808e-01
  4.053755e-01
  4.023332e-01
  4.005290e-01
  4.035772e-01
  4.084082e-01
  4.082510e-01
  4.016695e-01
  3.944241e-01
  3.918949e-01
  3.945290e-01
  3.997826e-01
  4.038940e-01
  4.031988e-01
  3.983217e-01
  3.953666e-01
  3.989292e-01
  4.057285e-01
  4.086471e-01
  4.061656e-01
  4.032342e-01
  4.034630e-01
  4.051877e-01
  4.053462e-01
  4.037094e-01
  4.019234e-01
  4.008370e-01
  3.999188e-01
  3.981096e-01
  3.956646e-01
  3.951252e-01
  3.980803e-01
  4.021157e-01
  4.041568e-01
  4.043901e-01
  4.040756e-01
  4.036970e-01
  4.043071e-01
  4.057864e-01
  4.053141e-01
  4.024515e-01
  4.015560e-01
  4.044076e-01
  4.061147e-01
  4.028165e-01
  3.979135e-01
  3.965874e-01
  3.994207e-01
  4.036108e-01
  4.042720e-01
  4.068162e-01
  4.072467e-01
  4.053821e-01
  4.027321e-01
  4.004863e-01
  3.986634e-01
  3.967969e-01
  3.951883e-01
  3.951787e-01
  3.968529e-01
  3.980765e-01
  3.979675e-01
  3.986765e-01
  4.014776e-01
  4.039067e-01
  4.029344e-01
  3.994530e-01
  3.979334e-01
  4.014093e-01
  4.069081e-01
  4.075084e-01
  4.009239e-01
  3.930669e-01
  3.909551e-01
  3.959732e-01
  4.042811e-01
  4.099770e-01
  4.086992e-01
  4.018655e-01
  3.964030e-01
  3.975457e-01
  4.030735e-01
  4.067431e-01
  4.065377e-01
  4.059392e-01
  4.074225e-01
  4.089154e-01
  4.075187e-01
  4.038704e-01
  4.010073e-01
  4.006266e-01
  4.015826e-01
  4.012235e-01
  3.989102e-01
  3.979034e-01
  4.008895e-01
  4.052920e-01
  4.069526e-01
  4.057572e-01
  4.039796e-01
  4.033818e-01
  4.053642e-01
  4.087546e-01
  4.088454e-01
  4.041333e-01
  4.001404e-01
  4.012851e-01
  4.043201e-01
  4.041326e-01
  4.012027e-01
  3.991515e-01
  3.994073e-01
  4.013632e-01
  4.009348e-01
  4.042918e-01
  4.062801e-01
  4.055701e-01
  4.039995e-01
  4.037026e-01
  4.043315e-01
  4.038913e-01
  4.015896e-01
  3.987403e-01
  3.964893e-01
  3.948716e-01
  3.946956e-01
  3.971254e-01
  4.007461e-01
  4.021592e-01
  4.000882e-01
  3.967839e-01
  3.956916e-01
  3.986593e-01
  4.036809e-01
  4.053435e-01
  4.006822e-01
  3.938428e-01
  3.916975e-01
  3.966847e-01
  4.053360e-01
  4.113798e-01
  4.103303e-01
  4.035028e-01
  3.971986e-01
  3.964012e-01
  3.999444e-01
  4.030515e-01
  4.038429e-01
  4.045991e-01
  4.067264e-01
  4.078512e-01
  4.051874e-01
  3.998702e-01
  3.959723e-01
  3.960766e-01
  3.988069e-01
  4.003304e-01
  3.991968e-01
  3.989927e-01
  4.030174e-01
  4.084765e-01
  4.103476e-01
  4.081450e-01
  4.047126e-01
  4.026274e-01
  4.036778e-01
  4.067397e-01
  4.068847e-01
  4.018595e-01
  3.966692e-01
  3.967978e-01
  4.008707e-01
  4.037098e-01
  4.033034e-01
  4.012803e-01
  3.994430e-01
  3.990176e-01
  4.003692e-01
  4.026542e-01
  4.040010e-01
  4.030754e-01
  4.021366e-01
  4.039335e-01
  4.076993e-01
  4.099387e-01
  4.083823e-01
  4.037247e-01
  3.980294e-01
  3.937689e-01
  3.934722e-01
  3.971228e-01
  4.008248e-01
  4.009924e-01
  3.985484e-01
  3.965498e-01
  3.963514e-01
  3.981009e-01
  4.014728e-01
  4.039065e-01
  4.020519e-01
  3.968247e-01
  3.934403e-01
  3.956234e-01
  4.019762e-01
  4.074101e-01
  4.074164e-01
  4.021406e-01
  3.962836e-01
  3.942427e-01
  3.958819e-01
  3.979290e-01
  3.988375e-01
  4.001342e-01
  4.028114e-01
  4.046848e-01
  4.027603e-01
  3.974858e-01
  3.929076e-01
  3.924746e-01
  3.954792e-01
  3.978131e-01
  3.972366e-01
  3.969381e-01
  4.006048e-01
  4.062264e-01
  4.090902e-01
  4.081255e-01
  4.052785e-01
  4.025018e-01
  4.015561e-01
  4.024465e-01
  4.020235e-01
  3.982138e-01
  3.941310e-01
  3.941765e-01
  3.981202e-01
  4.019388e-01
  4.030666e-01
  4.021125e-01
  4.005442e-01
  3.995736e-01
  4.024000e-01
  4.024855e-01
  4.017103e-01
  3.995271e-01
  3.981113e-01
  4.001658e-01
  4.050037e-01
  4.089478e-01
  4.089837e-01
  4.047207e-01
  3.981003e-01
  3.930576e-01
  3.932250e-01
  3.975861e-01
  4.007870e-01
  4.000179e-01
  3.982905e-01
  3.986258e-01
  3.997143e-01
  3.999301e-01
  4.008672e-01
  4.032858e-01
  4.039667e-01
  4.004904e-01
  3.957480e-01
  3.945433e-01
  3.980175e-01
  4.026637e-01
  4.037739e-01
  4.000143e-01
  3.946497e-01
  3.918710e-01
  3.925618e-01
  3.944589e-01
  3.958414e-01
  3.974976e-01
  4.006494e-01
  4.040403e-01
  4.044671e-01
  4.007376e-01
  3.958482e-01
  3.940221e-01
  3.960034e-01
  3.981133e-01
  3.970533e-01
  3.947208e-01
  3.951623e-01
  3.985731e-01
  4.020902e-01
  4.040951e-01
  4.043393e-01
  4.027592e-01
  4.003888e-01
  3.986742e-01
  3.973845e-01
  3.955878e-01
  3.941557e-01
  3.949399e-01
  3.977423e-01
  4.001555e-01
  4.008860e-01
  4.010841e-01
  4.017216e-01
  4.022486e-01
  4.036150e-01
  4.017327e-01
  3.991169e-01
  3.961530e-01
  3.942439e-01
  3.953542e-01
  3.992843e-01
  4.034703e-01
  4.051382e-01
  4.027622e-01
  3.972794e-01
  3.929226e-01
  3.937214e-01
  3.980812e-01
  4.003882e-01
  3.991113e-01
  3.985229e-01
  4.008791e-01
  4.026654e-01
  4.011319e-01
  3.994179e-01
  4.009985e-01
  4.034878e-01
  4.024777e-01
  3.985535e-01
  3.962661e-01
  3.980259e-01
  4.015813e-01
  4.026603e-01
  3.995016e-01
  3.946826e-01
  3.922420e-01
  3.935959e-01
  3.967925e-01
  3.992717e-01
  4.007245e-01
  4.028417e-01
  4.061015e-01
  4.079932e-01
  4.059882e-01
  4.014978e-01
  3.987997e-01
  3.999353e-01
  4.019892e-01
  4.006711e-01
  3.960952e-01
  3.923756e-01
  3.922758e-01
  3.952934e-01
  3.995432e-01
  4.027978e-01
  4.031415e-01
  4.006006e-01
  3.973107e-01
  3.953917e-01
  3.952685e-01
  3.962231e-01
  3.976743e-01
  3.989319e-01
  3.988425e-01
  3.977518e-01
  3.981281e-01
  4.009170e-01
  4.035477e-01
  4.022506e-01
  3.996995e-01
  3.969659e-01
  3.948578e-01
  3.935473e-01
  3.938848e-01
  3.962335e-01
  3.996728e-01
  4.022907e-01
  4.018103e-01
  3.979866e-01
  3.945857e-01
  3.954588e-01
  3.989066e-01
  4.000951e-01
  3.987491e-01
  3.991332e-01
  4.022014e-01
  4.034183e-01
  4.000311e-01
  3.959437e-01
  3.960337e-01
  3.993569e-01
  4.014823e-01
  4.010722e-01
  4.004663e-01
  4.013023e-01
  4.024989e-01
  4.019646e-01
  3.992153e-01
  3.962199e-01
  3.956360e-01
  3.983769e-01
  4.027416e-01
  4.057065e-01
  4.058649e-01
  4.050590e-01
  4.056495e-01
  4.068775e-01
  4.061124e-01
  4.031962e-01
  4.011918e-01
  4.024249e-01
  4.050939e-01
  4.049749e-01
  4.006638e-01
  3.953910e-01
  3.930845e-01
  3.946543e-01
  3.983076e-01
  4.015865e-01
  4.026684e-01
  4.011039e-01
  3.983414e-01
  3.968125e-01
  3.974617e-01
  3.989402e-01
  3.997668e-01
  3.994507e-01
  3.976154e-01
  3.951330e-01
  3.949835e-01
  3.984097e-01
  4.020568e-01
  3.991572e-01
  3.975528e-01
  3.968332e-01
  3.972518e-01
  3.976167e-01
  3.977060e-01
  3.983068e-01
  4.000502e-01
  4.022261e-01
  4.025380e-01
  3.999332e-01
  3.972415e-01
  3.975780e-01
  3.994577e-01
  3.995833e-01
  3.987526e-01
  4.001475e-01
  4.030979e-01
  4.031524e-01
  3.984815e-01
  3.929481e-01
  3.914494e-01
  3.945196e-01
  3.990440e-01
  4.024308e-01
  4.038717e-01
  4.030988e-01
  4.005298e-01
  3.977594e-01
  3.964514e-01
  3.970321e-01
  3.988603e-01
  4.014281e-01
  4.043171e-01
  4.059269e-01
  4.046200e-01
  4.015925e-01
  3.998440e-01
  4.001744e-01
  4.006767e-01
  4.000119e-01
  3.992358e-01
  4.001687e-01
  4.027462e-01
  4.045078e-01
  4.034278e-01
  4.007040e-01
  3.990940e-01
  3.992642e-01
  3.998026e-01
  4.000043e-01
  4.002698e-01
  4.004354e-01
  4.001442e-01
  4.000912e-01
  4.006143e-01
  4.005082e-01
  3.992194e-01
  3.977406e-01
  3.962783e-01
  3.945800e-01
  3.942230e-01
  3.964828e-01
  3.990953e-01
  3.951230e-01
  3.955897e-01
  3.981942e-01
  4.016849e-01
  4.038351e-01
  4.038776e-01
  4.028130e-01
  4.022696e-01
  4.027711e-01
  4.027530e-01
  4.009303e-01
  3.989810e-01
  3.988377e-01
  3.992181e-01
  3.984954e-01
  3.983203e-01
  4.005318e-01
  4.031214e-01
  4.024655e-01
  3.979929e-01
  3.928859e-01
  3.909295e-01
  3.933607e-01
  3.984756e-01
  4.033604e-01
  4.051257e-01
  4.020965e-01
  3.960765e-01
  3.919332e-01
  3.929469e-01
  3.973126e-01
  4.003456e-01
  4.000866e-01
  3.986330e-01
  3.976219e-01
  3.961772e-01
  3.940885e-01
  3.931787e-01
  3.945168e-01
  3.968265e-01
  3.980528e-01
  3.974025e-01
  3.961260e-01
  3.963167e-01
  3.983722e-01
  4.006630e-01
  4.021802e-01
  4.031914e-01
  4.029901e-01
  4.005187e-01
  3.974543e-01
  3.968745e-01
  3.990178e-01
  4.014760e-01
  4.026304e-01
  4.019987e-01
  3.991815e-01
  3.955351e-01
  3.940343e-01
  3.952379e-01
  3.966142e-01
  3.966558e-01
  3.961979e-01
  3.957197e-01
  3.910097e-01
  3.936069e-01
  3.990854e-01
  4.043730e-01
  4.071252e-01
  4.070102e-01
  4.050597e-01
  4.029470e-01
  4.019103e-01
  4.013726e-01
  4.002466e-01
  3.992907e-01
  3.993777e-01
  3.992093e-01
  3.980341e-01
  3.977738e-01
  3.994778e-01
  4.009869e-01
  4.001404e-01
  3.974444e-01
  3.949258e-01
  3.944821e-01
  3.968633e-01
  4.010923e-01
  4.050072e-01
  4.059458e-01
  4.020119e-01
  3.951106e-01
  3.910573e-01
  3.936679e-01
  3.996801e-01
  4.019011e-01
  3.978684e-01
  3.921450e-01
  3.892431e-01
  3.890061e-01
  3.897382e-01
  3.915173e-01
  3.949706e-01
  3.992073e-01
  4.018230e-01
  4.006491e-01
  3.963456e-01
  3.926675e-01
  3.925765e-01
  3.953965e-01
  3.989754e-01
  4.018361e-01
  4.021526e-01