# vtk DataFile Version 2.0
time_10.vtk
ASCII
DATASET STRUCTURED_GRID
DIMENSIONS    64    64     1
POINTS    4096 float
  0.000000e+00   0.000000e+00   0.000000e+00
  0.000000e+00   1.000000e+00   0.000000e+00
  0.000000e+00   2.000000e+00   0.000000e+00
  0.000000e+00   3.000000e+00   0.000000e+00
  0.000000e+00   4.000000e+00   0.000000e+00
  0.000000e+00   5.000000e+00   0.000000e+00
  0.000000e+00   6.000000e+00   0.000000e+00
  0.000000e+00   7.000000e+00   0.000000e+00
  0.000000e+00   8.000000e+00   0.000000e+00
  0.000000e+00   9.000000e+00   0.000000e+00
  0.000000e+00   1.000000e+01   0.000000e+00
  0.000000e+00   1.100000e+01   0.000000e+00
  0.000000e+00   1.200000e+01   0.000000e+00
  0.000000e+00   1.300000e+01   0.000000e+00
  0.000000e+00   1.400000e+01   0.000000e+00
  0.000000e+00   1.500000e+01   0.000000e+00
  0.000000e+00   1.600000e+01   0.000000e+00
  0.000000e+00   1.700000e+01   0.000000e+00
  0.000000e+00   1.800000e+01   0.000000e+00
  0.000000e+00   1.900000e+01   0.000000e+00
  0.000000e+00   2.000000e+01   0.000000e+00
  0.000000e+00   2.100000e+01   0.000000e+00
  0.000000e+00   2.200000e+01   0.000000e+00
  0.000000e+00   2.300000e+01   0.000000e+00
  0.000000e+00   2.400000e+01   0.000000e+00
  0.000000e+00   2.500000e+01   0.000000e+00
  0.000000e+00   2.600000e+01   0.000000e+00
  0.000000e+00   2.700000e+01   0.000000e+00
  0.000000e+00   2.800000e+01   0.000000e+00
  0.000000e+00   2.900000e+01   0.000000e+00
  0.000000e+00   3.000000e+01   0.000000e+00
  0.000000e+00   3.100000e+01   0.000000e+00
  0.000000e+00   3.200000e+01   0.000000e+00
  0.000000e+00   3.300000e+01   0.000000e+00
  0.000000e+00   3.400000e+01   0.000000e+00
  0.000000e+00   3.500000e+01   0.000000e+00
  0.000000e+00   3.600000e+01   0.000000e+00
  0.000000e+00   3.700000e+01   0.000000e+00
  0.000000e+00   3.800000e+01   0.000000e+00
  0.000000e+00   3.900000e+01   0.000000e+00
  0.000000e+00   4.000000e+01   0.000000e+00
  0.000000e+00   4.100000e+01   0.000000e+00
  0.000000e+00   4.200000e+01   0.000000e+00
  0.000000e+00   4.300000e+01   0.000000e+00
  0.000000e+00   4.400000e+01   0.000000e+00
  0.000000e+00   4.500000e+01   0.000000e+00
  0.000000e+00   4.600000e+01   0.000000e+00
  0.000000e+00   4.700000e+01   0.000000e+00
  0.000000e+00   4.800000e+01   0.000000e+00
  0.000000e+00   4.900000e+01   0.000000e+00
  0.000000e+00   5.000000e+01   0.000000e+00
  0.000000e+00   5.100000e+01   0.000000e+00
  0.000000e+00   5.200000e+01   0.000000e+00
  0.000000e+00   5.300000e+01   0.000000e+00
  0.000000e+00   5.400000e+01   0.000000e+00
  0.000000e+00   5.500000e+01   0.000000e+00
  0.000000e+00   5.600000e+01   0.000000e+00
  0.000000e+00   5.700000e+01   0.000000e+00
  0.000000e+00   5.800000e+01   0.000000e+00
  0.000000e+00   5.900000e+01   0.000000e+00
  0.000000e+00   6.000000e+01   0.000000e+00
  0.000000e+00   6.100000e+01   0.000000e+00
  0.000000e+00   6.200000e+01   0.000000e+00
  0.000000e+00   6.300000e+01   0.000000e+00
  1.000000e+00   0.000000e+00   0.000000e+00
  1.000000e+00   1.000000e+00   0.000000e+00
  1.000000e+00   2.000000e+00   0.000000e+00
  1.000000e+00   3.000000e+00   0.000000e+00
  1.000000e+00   4.000000e+00   0.000000e+00
  1.000000e+00   5.000000e+00   0.000000e+00
  1.000000e+00   6.000000e+00   0.000000e+00
  1.000000e+00   7.000000e+00   0.000000e+00
  1.000000e+00   8.000000e+00   0.000000e+00
  1.000000e+00   9.000000e+00   0.000000e+00
  1.000000e+00   1.000000e+01   0.000000e+00
  1.000000e+00   1.100000e+01   0.000000e+00
  1.000000e+00   1.200000e+01   0.000000e+00
  1.000000e+00   1.300000e+01   0.000000e+00
  1.000000e+00   1.400000e+01   0.000000e+00
  1.000000e+00   1.500000e+01   0.000000e+00
  1.000000e+00   1.600000e+01   0.000000e+00
  1.000000e+00   1.700000e+01   0.000000e+00
  1.000000e+00   1.800000e+01   0.000000e+00
  1.000000e+00   1.900000e+01   0.000000e+00
  1.000000e+00   2.000000e+01   0.000000e+00
  1.000000e+00   2.100000e+01   0.000000e+00
  1.000000e+00   2.200000e+01   0.000000e+00
  1.000000e+00   2.300000e+01   0.000000e+00
  1.000000e+00   2.400000e+01   0.000000e+00
  1.000000e+00   2.500000e+01   0.000000e+00
  1.000000e+00   2.600000e+01   0.000000e+00
  1.000000e+00   2.700000e+01   0.000000e+00
  1.000000e+00   2.800000e+01   0.000000e+00
  1.000000e+00   2.900000e+01   0.000000e+00
  1.000000e+00   3.000000e+01   0.000000e+00
  1.000000e+00   3.100000e+01   0.000000e+00
  1.000000e+00   3.200000e+01   0.000000e+00
  1.000000e+00   3.300000e+01   0.000000e+00
  1.000000e+00   3.400000e+01   0.000000e+00
  1.000000e+00   3.500000e+01   0.000000e+00
  1.000000e+00   3.600000e+01   0.000000e+00
  1.000000e+00   3.700000e+01   0.000000e+00
  1.000000e+00   3.800000e+01   0.000000e+00
  1.000000e+00   3.900000e+01   0.000000e+00
  1.000000e+00   4.000000e+01   0.000000e+00
  1.000000e+00   4.100000e+01   0.000000e+00
  1.000000e+00   4.200000e+01   0.000000e+00
  1.000000e+00   4.300000e+01   0.000000e+00
  1.000000e+00   4.400000e+01   0.000000e+00
  1.000000e+00   4.500000e+01   0.000000e+00
  1.000000e+00   4.600000e+01   0.000000e+00
  1.000000e+00   4.700000e+01   0.000000e+00
  1.000000e+00   4.800000e+01   0.000000e+00
  1.000000e+00   4.900000e+01   0.000000e+00
  1.000000e+00   5.000000e+01   0.000000e+00
  1.000000e+00   5.100000e+01   0.000000e+00
  1.000000e+00   5.200000e+01   0.000000e+00
  1.000000e+00   5.300000e+01   0.000000e+00
  1.000000e+00   5.400000e+01   0.000000e+00
  1.000000e+00   5.500000e+01   0.000000e+00
  1.000000e+00   5.600000e+01   0.000000e+00
  1.000000e+00   5.700000e+01   0.000000e+00
  1.000000e+00   5.800000e+01   0.000000e+00
  1.000000e+00   5.900000e+01   0.000000e+00
  1.000000e+00   6.000000e+01   0.000000e+00
  1.000000e+00   6.100000e+01   0.000000e+00
  1.000000e+00   6.200000e+01   0.000000e+00
  1.000000e+00   6.300000e+01   0.000000e+00
  2.000000e+00   0.000000e+00   0.000000e+00
  2.000000e+00   1.000000e+00   0.000000e+00
  2.000000e+00   2.000000e+00   0.000000e+00
  2.000000e+00   3.000000e+00   0.000000e+00
  2.000000e+00   4.000000e+00   0.000000e+00
  2.000000e+00   5.000000e+00   0.000000e+00
  2.000000e+00   6.000000e+00   0.000000e+00
  2.000000e+00   7.000000e+00   0.000000e+00
  2.000000e+00   8.000000e+00   0.000000e+00
  2.000000e+00   9.000000e+00   0.000000e+00
  2.000000e+00   1.000000e+01   0.000000e+00
  2.000000e+00   1.100000e+01   0.000000e+00
  2.000000e+00   1.200000e+01   0.000000e+00
  2.000000e+00   1.300000e+01   0.000000e+00
  2.000000e+00   1.400000e+01   0.000000e+00
  2.000000e+00   1.500000e+01   0.000000e+00
  2.000000e+00   1.600000e+01   0.000000e+00
  2.000000e+00   1.700000e+01   0.000000e+00
  2.000000e+00   1.800000e+01   0.000000e+00
  2.000000e+00   1.900000e+01   0.000000e+00
  2.000000e+00   2.000000e+01   0.000000e+00
  2.000000e+00   2.100000e+01   0.000000e+00
  2.000000e+00   2.200000e+01   0.000000e+00
  2.000000e+00   2.300000e+01   0.000000e+00
  2.000000e+00   2.400000e+01   0.000000e+00
  2.000000e+00   2.500000e+01   0.000000e+00
  2.000000e+00   2.600000e+01   0.000000e+00
  2.000000e+00   2.700000e+01   0.000000e+00
  2.000000e+00   2.800000e+01   0.000000e+00
  2.000000e+00   2.900000e+01   0.000000e+00
  2.000000e+00   3.000000e+01   0.000000e+00
  2.000000e+00   3.100000e+01   0.000000e+00
  2.000000e+00   3.200000e+01   0.000000e+00
  2.000000e+00   3.300000e+01   0.000000e+00
  2.000000e+00   3.400000e+01   0.000000e+00
  2.000000e+00   3.500000e+01   0.000000e+00
  2.000000e+00   3.600000e+01   0.000000e+00
  2.000000e+00   3.700000e+01   0.000000e+00
  2.000000e+00   3.800000e+01   0.000000e+00
  2.000000e+00   3.900000e+01   0.000000e+00
  2.000000e+00   4.000000e+01   0.000000e+00
  2.000000e+00   4.100000e+01   0.000000e+00
  2.000000e+00   4.200000e+01   0.000000e+00
  2.000000e+00   4.300000e+01   0.000000e+00
  2.000000e+00   4.400000e+01   0.000000e+00
  2.000000e+00   4.500000e+01   0.000000e+00
  2.000000e+00   4.600000e+01   0.000000e+00
  2.000000e+00   4.700000e+01   0.000000e+00
  2.000000e+00   4.800000e+01   0.000000e+00
  2.000000e+00   4.900000e+01   0.000000e+00
  2.000000e+00   5.000000e+01   0.000000e+00
  2.000000e+00   5.100000e+01   0.000000e+00
  2.000000e+00   5.200000e+01   0.000000e+00
  2.000000e+00   5.300000e+01   0.000000e+00
  2.000000e+00   5.400000e+01   0.000000e+00
  2.000000e+00   5.500000e+01   0.000000e+00
  2.000000e+00   5.600000e+01   0.000000e+00
  2.000000e+00   5.700000e+01   0.000000e+00
  2.000000e+00   5.800000e+01   0.000000e+00
  2.000000e+00   5.900000e+01   0.000000e+00
  2.000000e+00   6.000000e+01   0.000000e+00
  2.000000e+00   6.100000e+01   0.000000e+00
  2.000000e+00   6.200000e+01   0.000000e+00
  2.000000e+00   6.300000e+01   0.000000e+00
  3.000000e+00   0.000000e+00   0.000000e+00
  3.000000e+00   1.000000e+00   0.000000e+00
  3.000000e+00   2.000000e+00   0.000000e+00
  3.000000e+00   3.000000e+00   0.000000e+00
  3.000000e+00   4.000000e+00   0.000000e+00
  3.000000e+00   5.000000e+00   0.000000e+00
  3.000000e+00   6.000000e+00   0.000000e+00
  3.000000e+00   7.000000e+00   0.000000e+00
  3.000000e+00   8.000000e+00   0.000000e+00
  3.000000e+00   9.000000e+00   0.000000e+00
  3.000000e+00   1.000000e+01   0.000000e+00
  3.000000e+00   1.100000e+01   0.000000e+00
  3.000000e+00   1.200000e+01   0.000000e+00
  3.000000e+00   1.300000e+01   0.000000e+00
  3.000000e+00   1.400000e+01   0.000000e+00
  3.000000e+00   1.500000e+01   0.000000e+00
  3.000000e+00   1.600000e+01   0.000000e+00
  3.000000e+00   1.700000e+01   0.000000e+00
  3.000000e+00   1.800000e+01   0.000000e+00
  3.000000e+00   1.900000e+01   0.000000e+00
  3.000000e+00   2.000000e+01   0.000000e+00
  3.000000e+00   2.100000e+01   0.000000e+00
  3.000000e+00   2.200000e+01   0.000000e+00
  3.000000e+00   2.300000e+01   0.000000e+00
  3.000000e+00   2.400000e+01   0.000000e+00
  3.000000e+00   2.500000e+01   0.000000e+00
  3.000000e+00   2.600000e+01   0.000000e+00
[...]
POINT_DATA  4096
SCALARS CON float 1
LOOKUP_TABLE default
  1.753434e-01
  6.339297e-01
  9.238536e-01
  9.910760e-01
  9.999000e-01
  9.991709e-01
  9.611662e-01
  7.666420e-01
  2.429268e-01
  6.794123e-02
  3.350653e-02
  2.843526e-02
  2.870890e-02
  2.980382e-02
  3.094973e-02
  3.192845e-02
  3.247563e-02
  3.227599e-02
  3.107060e-02
  2.872890e-02
  2.535823e-02
  2.161391e-02
  1.859492e-02
  1.709607e-02
  2.055753e-02
  4.580682e-02
  1.587749e-01
  4.966322e-01
  8.342455e-01
  9.547972e-01
  9.870588e-01
  9.948824e-01
  9.961362e-01
  9.945732e-01
  9.881573e-01
  9.669190e-01
  9.005499e-01
  7.122978e-01
  3.491709e-01
  1.108441e-01
  4.078518e-02
  2.625031e-02
  2.554235e-02
  2.820036e-02
  3.083662e-02
  3.209004e-02
  3.159395e-02
  2.965296e-02
  2.711671e-02
  2.550388e-02
  2.731922e-02
  3.817588e-02
  7.258998e-02
  1.416511e-01
  2.093823e-01
  2.289638e-01
  1.919048e-01
  1.197407e-01
  6.021854e-02
  3.102040e-02
  2.108714e-02
  1.955275e-02
  2.436053e-02
  4.976812e-02
  1.134631e-01
  4.138665e-01
  8.063946e-01
  9.432683e-01
  9.743797e-01
  9.692489e-01
  9.044633e-01
  6.462389e-01
  1.989685e-01
  6.967757e-02
  5.356964e-02
  6.252080e-02
  7.383118e-02
  8.321551e-02
  9.052428e-02
  9.556992e-02
  9.732886e-02
  9.444083e-02
  8.601735e-02
  7.205322e-02
  5.380042e-02
  3.568247e-02
  2.433835e-02
  1.894531e-02
  1.740578e-02
  2.386987e-02
  6.122057e-02
  2.075846e-01
  5.680027e-01
  8.560122e-01
  9.582663e-01
  9.874773e-01
  9.955039e-01
  9.975788e-01
  9.972409e-01
  9.931745e-01
  9.766287e-01
  9.128306e-01
  6.910127e-01
  2.589487e-01
  7.504014e-02
  3.302601e-02
  2.503035e-02
  2.394594e-02
  2.402341e-02
  2.405519e-02
  2.384472e-02
  2.350964e-02
  2.347422e-02
  2.516735e-02
  3.430011e-02
  7.412355e-02
  2.175048e-01
  4.969355e-01
  7.065107e-01
  7.539126e-01
  6.706666e-01
  4.359731e-01
  1.939161e-01
  6.918403e-02
  2.886897e-02
  1.945581e-02
  2.106612e-02
  3.717231e-02
  5.684156e-02
  1.777642e-01
  4.718467e-01
  7.298393e-01
  8.173665e-01
  8.049959e-01
  6.699508e-01
  3.512252e-01
  1.295512e-01
  9.787078e-02
  1.542737e-01
  2.318927e-01
  2.934403e-01
  3.377751e-01
  3.698682e-01
  3.905663e-01
  3.961950e-01
  3.814872e-01
  3.426442e-01
  2.780268e-01
  1.888364e-01
  9.536811e-02
  4.320718e-02
  2.472964e-02
  1.839998e-02
  1.743250e-02
  2.675128e-02
  7.275224e-02
  2.350792e-01
  5.920759e-01
  8.587768e-01
  9.571108e-01
  9.872680e-01
  9.965122e-01
  9.994963e-01
  9.999000e-01
  9.965917e-01
  9.747889e-01
  8.624494e-01
  4.571090e-01
  1.246090e-01
  4.346066e-02
  2.742566e-02
  2.428487e-02
  2.356243e-02
  2.325737e-02
  2.301956e-02
  2.291150e-02
  2.350219e-02
  2.759245e-02
  4.911352e-02
  1.525267e-01
  5.200092e-01
  8.380411e-01
  9.402796e-01
  9.574186e-01
  9.294265e-01
  8.201283e-01
  5.326977e-01
  1.879148e-01
  5.487193e-02
  2.260556e-02
  1.801878e-02
  2.497096e-02
  2.773435e-02
  6.031824e-02
  1.366177e-01
  2.317146e-01
  2.897090e-01
  2.843474e-01
  2.170621e-01
  1.289910e-01
  1.105849e-01
  2.373682e-01
  5.201548e-01
  7.356464e-01
  8.189803e-01
  8.486633e-01
  8.617527e-01
  8.686526e-01
  8.708235e-01
  8.663364e-01
  8.485555e-01
  7.934658e-01
  6.281387e-01
  3.082411e-01
  9.886259e-02
  3.790677e-02
  2.203065e-02
  1.704831e-02
  1.703281e-02
  2.817091e-02
  7.721352e-02
  2.384696e-01
  5.809771e-01
  8.464011e-01
  9.510619e-01
  9.855451e-01
  9.967089e-01
  9.999000e-01
  9.999000e-01
  9.901252e-01
  9.149183e-01
  5.788646e-01
  1.594590e-01
  5.116843e-02
  2.970245e-02
  2.535415e-02
  2.425700e-02
  2.378716e-02
  2.345164e-02
  2.329507e-02
  2.414362e-02
  3.052498e-02
  6.612846e-02
  2.399247e-01
  7.447491e-01
  9.477900e-01
  9.919409e-01
  9.970214e-01
  9.891184e-01
  9.525731e-01
  8.148169e-01
  4.299729e-01
  1.188585e-01
  3.339581e-02
  1.675864e-02
  1.725037e-02
  1.615059e-02
  2.502354e-02
  4.181145e-02
  6.240331e-02
  7.651948e-02
  7.770895e-02
  6.892541e-02
  7.192616e-02
  1.598734e-01
  5.160258e-01
  8.394948e-01
  9.447064e-01
  9.715261e-01
  9.782359e-01
  9.803463e-01
  9.814649e-01
  9.821741e-01
  9.820530e-01
  9.790629e-01
  9.640300e-01
  8.951585e-01
  6.412904e-01
  2.001996e-01
  5.921972e-02
  2.726752e-02
  1.875244e-02
  1.560031e-02
  1.635978e-02
  2.788340e-02
  7.451871e-02
  2.207367e-01
  5.352092e-01
  8.135551e-01
  9.352996e-01
  9.783434e-01
  9.931187e-01
  9.960268e-01
  9.812899e-01
  8.905115e-01
  5.280995e-01
  1.471772e-01
  5.001731e-02
  3.035719e-02
  2.621427e-02
  2.510023e-02
  2.458366e-02
  2.416725e-02
  2.388852e-02
  2.475280e-02
  3.250738e-02
  7.752235e-02
  2.950730e-01
  8.226702e-01
  9.737370e-01
  9.997111e-01
  9.999000e-01
  9.990052e-01
  9.868856e-01
  9.299441e-01
  7.038539e-01
  2.441360e-01
  5.932042e-02
  1.885372e-02
  1.309532e-02
  1.090294e-02
  1.425259e-02
  1.944439e-02
  2.520007e-02
  2.975159e-02
  3.245700e-02
  3.712626e-02
  6.539973e-02
  2.157788e-01
  7.106941e-01
  9.401552e-01
  9.909980e-01
  9.988609e-01
  9.994419e-01
  9.992932e-01
  9.993137e-01
  9.995541e-01
  9.999000e-01
  9.999000e-01
  9.974407e-01
  9.664262e-01
  8.001326e-01
  2.844456e-01
  7.787407e-02
  3.183142e-02
  2.073018e-02
  1.656037e-02
  1.456021e-02
  1.571722e-02
  2.632096e-02
  6.603008e-02
  1.841958e-01
  4.442405e-01
  7.397825e-01
  8.873790e-01
  9.437358e-01
  9.531284e-01
  9.133138e-01
  7.438817e-01
  3.305173e-01
  9.895848e-02
  4.181149e-02
  2.953690e-02
  2.675239e-02
  2.595349e-02
  2.555294e-02
  2.515337e-02
  2.475043e-02
  2.535781e-02
  3.305313e-02
  7.996894e-02
  3.078394e-01
  8.357735e-01
  9.766802e-01
  9.996559e-01
  9.999000e-01
  9.999000e-01
  9.954614e-01
  9.704413e-01
  8.542227e-01
  4.552812e-01
  1.156597e-01
  2.780921e-02
  1.153490e-02
  8.250217e-03
  9.545949e-03
  1.250758e-02
  1.575294e-02
  1.876964e-02
  2.192148e-02
  2.911254e-02
  6.199613e-02
  2.245691e-01
  7.422527e-01
  9.539877e-01
  9.964229e-01
  9.999000e-01
  9.999000e-01
  9.999000e-01
  9.999000e-01
  9.999000e-01
  9.999000e-01
  9.999000e-01
  9.999000e-01
  9.754896e-01
  8.259969e-01
  3.053447e-01
  8.296247e-02
  3.357067e-02
  2.210192e-02
  1.796232e-02
  1.553432e-02
  1.430608e-02
  1.574934e-02
  2.470112e-02
  5.439936e-02
  1.343251e-01
  3.028601e-01
  5.493945e-01
  7.129371e-01
  7.423187e-01
  6.382057e-01
  3.742116e-01
  1.428428e-01
  5.635001e-02
  3.381818e-02
  2.846698e-02
  2.721681e-02
  2.698200e-02
  2.701278e-02
  2.695476e-02
  2.655506e-02
  2.657851e-02
  3.264434e-02
  7.401340e-02
  2.816088e-01
  8.118103e-01
  9.694097e-01
  9.975485e-01
  9.999000e-01
  9.999000e-01
  9.977952e-01
  9.860402e-01
  9.298758e-01
  6.943291e-01
  2.284843e-01
  5.258128e-02
  1.410471e-02
  9.181090e-03
  7.136565e-03
  9.033490e-03
  1.179905e-02
  1.467266e-02
  1.790993e-02
  2.447202e-02
  5.081800e-02
  1.777143e-01
  6.284808e-01
  9.120980e-01
  9.833573e-01
  9.968019e-01
  9.987550e-01
  9.987746e-01
  9.986104e-01
  9.985761e-01
  9.986030e-01
  9.978430e-01
  9.912197e-01
  9.489229e-01
  7.539519e-01
  2.537721e-01
  7.182702e-02
  3.197493e-02
  2.265635e-02
  1.929093e-02
  1.736675e-02
  1.643050e-02
  1.708499e-02
  2.045835e-02
  2.897097e-02
  4.909645e-02
  9.152883e-02
  1.598168e-01
  2.188401e-01
  2.300807e-01
  1.863989e-01
  1.116481e-01
  5.737382e-02
  3.579557e-02
  2.943201e-02
  2.793506e-02
  2.795803e-02
  2.878143e-02
  3.037302e-02
  3.211449e-02
  3.239044e-02
  3.100029e-02
  3.318582e-02
  6.277521e-02
  2.249672e-01
  7.309475e-01
  9.451966e-01
  9.914680e-01
  9.991899e-01
  9.998659e-01
  9.984669e-01
  9.924236e-01
  9.654899e-01
  8.440342e-01
  4.434433e-01
  1.190490e-01
  2.818330e-02
  2.179445e-02
  9.022543e-03
  7.820994e-03
  9.681959e-03
  1.233753e-02
  1.538758e-02
  2.027354e-02
  3.557330e-02
  1.021978e-01
  3.603769e-01
  7.491628e-01
  9.136642e-01
  9.612835e-01
  9.735930e-01
  9.764665e-01
  9.768778e-01
  9.764164e-01
  9.744809e-01
  9.669422e-01
  9.376740e-01
  8.303930e-01
  5.185874e-01
  1.569778e-01
  5.184707e-02
  2.851175e-02
  2.273149e-02
  2.071539e-02
  2.040131e-02
  2.295130e-02
  3.078940e-02
  4.413801e-02
  5.855375e-02
  7.238564e-02
  8.659541e-02
  9.934071e-02
  1.012839e-01
  8.690902e-02
  6.489826e-02
  4.526503e-02
  3.351947e-02
  2.890476e-02
  2.776600e-02
  2.808170e-02
  2.960107e-02
  3.353611e-02
  4.207092e-02
  5.342498e-02
  5.802994e-02
  5.092985e-02
  4.131767e-02
  5.182114e-02
  1.497726e-01
  5.352078e-01
  8.736173e-01
  9.715736e-01
  9.938409e-01
  9.982535e-01
  9.981378e-01
  9.950423e-01
  9.826872e-01
  9.290484e-01
  7.167566e-01
  2.879364e-01
  7.905790e-02
  7.875713e-02
  2.799922e-02
  1.395459e-02
  1.118920e-02
  1.201631e-02
  1.415155e-02
  1.737683e-02
  2.453798e-02
  4.918026e-02
  1.382077e-01
  3.623230e-01
  6.399297e-01
  7.783897e-01
  8.254744e-01
  8.401501e-01
  8.436950e-01
  8.414867e-01
  8.312931e-01
  7.996206e-01
  7.040921e-01
  4.724217e-01
  2.073933e-01
  7.307580e-02
  3.489000e-02
  2.543268e-02
  2.294969e-02
  2.306359e-02
  2.779238e-02
  4.599009e-02
  9.302119e-02
  1.683524e-01
  2.358416e-01
  2.796892e-01
  2.980979e-01
  2.845781e-01
  2.299170e-01
  1.429105e-01
  7.173103e-02
  3.979709e-02
  2.969512e-02
  2.733802e-02
  2.747171e-02
  2.903872e-02
  3.386737e-02
  4.922139e-02
  9.075531e-02
  1.529601e-01
  1.810037e-01
  1.452572e-01
  8.365667e-02
  5.327933e-02
  8.514650e-02
  2.760671e-01
  6.848884e-01
  9.056546e-01
  9.731083e-01
  9.914255e-01
  9.958333e-01
  9.954373e-01
  9.902832e-01
  9.693217e-01
  8.849730e-01
  6.145993e-01
  2.436881e-01
  2.871012e-01
  1.194412e-01
  5.345423e-02
  2.865708e-02
  1.927389e-02
  1.654277e-02
  1.696690e-02
  1.965611e-02
  2.710289e-02
  4.901223e-02
  1.017971e-01
  1.815444e-01
  2.484791e-01
  2.900993e-01
  3.114269e-01
  3.187654e-01
  3.151157e-01
  2.992407e-01
  2.660358e-01
  2.091592e-01
  1.318232e-01
  6.750692e-02
  3.668290e-02
  2.669065e-02
  2.394068e-02
  2.390075e-02
  2.817214e-02
  4.896491e-02
  1.288432e-01
  3.361112e-01
  6.127925e-01
  7.647834e-01
  8.182289e-01
  8.296610e-01
  8.070673e-01
  7.103243e-01
  4.603429e-01
  1.865718e-01
  6.592290e-02
  3.444054e-02
  2.806069e-02
  2.794144e-02
  3.123868e-02
  4.455705e-02
  9.821788e-02
  2.745360e-01
  5.275168e-01
  6.267829e-01
  5.041614e-01
  2.493740e-01
  8.971878e-02
  5.693068e-02
  1.146306e-01
  3.388660e-01
  7.000997e-01
  8.945974e-01
  9.634651e-01
  9.858531e-01
  9.923749e-01
  9.923512e-01
  9.854625e-01
  9.581622e-01
  8.627020e-01
  6.134917e-01
  7.171417e-01
  4.474494e-01
  2.339275e-01
  1.201998e-01
  6.114630e-02
  3.339368e-02
  2.239564e-02
  1.970214e-02
  2.076182e-02
  2.518435e-02
  3.487489e-02
  4.909901e-02
  6.190626e-02
  7.049775e-02
  7.529944e-02
  7.746162e-02
  7.751320e-02
  7.494204e-02
  6.851593e-02
  5.742562e-02
  4.332327e-02
  3.186515e-02
  2.603771e-02
  2.397192e-02
  2.370297e-02
  2.587061e-02
  3.834031e-02
  9.911830e-02
  3.400850e-01
  7.303500e-01
  9.049715e-01
  9.580212e-01
  9.725758e-01
  9.751786e-01
  9.685675e-01
  9.353057e-01
  8.067679e-01
  4.469548e-01
  1.294718e-01
  4.641284e-02
  3.024956e-02
  2.889274e-02
  3.471611e-02
  6.366015e-02
  1.972729e-01
  6.212264e-01
  8.738557e-01
  9.277554e-01
  8.612725e-01
  5.834589e-01
  1.758880e-01
  5.862415e-02
  5.112447e-02
  1.158102e-01
  3.101295e-01
  6.375994e-01
  8.512168e-01
  9.426433e-01
  9.765965e-01
  9.878852e-01
  9.895287e-01
  9.829318e-01
  9.578215e-01
  8.844361e-01
  9.296241e-01
  8.478145e-01
  7.048477e-01
  4.689774e-01
  2.453853e-01
  1.099644e-01
  4.702312e-02
  2.626517e-02
  2.092901e-02
  2.011488e-02
  2.095113e-02
  2.260367e-02
  2.422964e-02
  2.561070e-02
  2.710360e-02
  2.909739e-02
  3.145586e-02
  3.320879e-02
  3.307756e-02
  3.085445e-02
  2.772677e-02
  2.522268e-02
  2.390123e-02
  2.347198e-02
  2.404046e-02
  2.834008e-02
  5.188479e-02
  1.710726e-01
  6.063456e-01
  9.041984e-01
  9.809854e-01
  9.962451e-01
  9.989783e-01
  9.994073e-01
  9.982390e-01
  9.885262e-01
  9.318641e-01
  6.884139e-01
  2.055201e-01
  6.079867e-02
  3.284760e-02
  2.984305e-02
  3.766027e-02
  7.997216e-02
  2.781869e-01
  7.935185e-01
  9.674552e-01
  9.963819e-01
  9.618547e-01
  7.693584e-01
  2.498289e-01
  6.854211e-02
  3.343413e-02
  4.132296e-02
  9.266274e-02
  2.331083e-01
  5.057006e-01
  7.710910e-01
  9.068995e-01
  9.620047e-01
  9.822032e-01
  9.876527e-01
  9.842650e-01
  9.688024e-01
  9.828291e-01
  9.675404e-01
  9.343659e-01
  8.585593e-01
  6.899113e-01
  3.721888e-01
  1.314777e-01
  4.717196e-02
  2.565201e-02
  2.018920e-02
  1.839990e-02
  1.762951e-02
  1.754656e-02
  1.866665e-02
  2.206068e-02
  2.869231e-02
  3.778458e-02
  4.520493e-02
  4.551406e-02
  3.902898e-02
  3.150503e-02
  2.668555e-02
  2.448013e-02
  2.372541e-02
  2.434356e-02
  2.975005e-02
  5.992528e-02
  2.132362e-01
  7.227620e-01
  9.492077e-01
  9.955029e-01
  9.999000e-01
  9.999000e-01
  9.999000e-01
  9.999000e-01
  9.973812e-01
  9.603228e-01
  7.677577e-01
  2.419838e-01
  6.812280e-02
  3.429354e-02
  3.036964e-02
  3.837354e-02
  8.260871e-02
  2.898726e-01
  8.104119e-01
  9.742076e-01
  9.999000e-01
  9.688582e-01
  7.866548e-01
  2.598594e-01
  7.004039e-02
  2.941893e-02
  2.287747e-02
  3.114690e-02
  6.419830e-02
  1.536673e-01
  3.508718e-01
  6.527804e-01
  8.502345e-01
  9.405816e-01
  9.754543e-01
  9.869981e-01
  9.884475e-01
  9.932380e-01
  9.937325e-01
  9.892535e-01
  9.737146e-01
  9.206835e-01
  7.390668e-01
  3.252963e-01
  9.325846e-02
  3.541543e-02
  2.212401e-02
  1.824569e-02
  1.684939e-02
  1.754967e-02
  2.269678e-02
  3.742253e-02
  6.711528e-02
  1.087586e-01
  1.416273e-01
  1.366852e-01
  9.751947e-02
  5.745840e-02
  3.522032e-02
  2.690912e-02
  2.428347e-02
  2.425384e-02
  2.902798e-02
  5.657935e-02
  1.969338e-01
  6.824022e-01
  9.350078e-01
  9.914158e-01
  9.999000e-01
  9.999000e-01
  9.999000e-01
  9.999000e-01
  9.928428e-01
  9.449122e-01
  7.233310e-01
  2.203441e-01
  6.405954e-02
  3.406213e-02
  3.084030e-02
  3.748568e-02
  7.135030e-02
  2.285676e-01
  6.949699e-01
  9.159204e-01
  9.570435e-01
  9.026963e-01
  6.519560e-01
  1.997966e-01
  5.908516e-02
  2.775478e-02
  1.983385e-02
  1.827480e-02
  2.301483e-02
  4.200766e-02
  9.636174e-02
  2.329137e-01
  5.011731e-01
  7.734218e-01
  9.134676e-01
  9.680802e-01
  9.871608e-01
  9.868746e-01
  9.967464e-01
  9.999000e-01
  9.993441e-01
  9.835507e-01
  8.967203e-01
  5.558605e-01
  1.534288e-01
  4.732822e-02
  2.445069e-02
  1.862140e-02
  1.776303e-02
  2.334016e-02
  4.650780e-02
  1.125004e-01
  2.433637e-01
  4.122189e-01
  5.320120e-01
  5.046690e-01
  3.387585e-01
  1.591374e-01
  6.257836e-02
  3.297894e-02
  2.524785e-02
  2.374193e-02
  2.650545e-02
  4.413984e-02
  1.327837e-01
  4.763144e-01
  8.392809e-01
  9.562898e-01
  9.859601e-01
  9.929503e-01
  9.931273e-01
  9.869745e-01
  9.610421e-01
  8.593105e-01
  5.286301e-01
  1.519330e-01
  5.170836e-02
  3.361765e-02
  3.385624e-02
  4.060023e-02
  6.016502e-02
  1.363280e-01
  3.886609e-01
  6.738931e-01
  7.507962e-01
  6.374193e-01
  3.299277e-01
  1.079833e-01
  4.358929e-02
  2.710598e-02
  2.126180e-02
  1.786378e-02
  1.614107e-02
  1.785901e-02
  2.825383e-02
  6.169043e-02
  1.538863e-01
  3.683765e-01
  6.903115e-01
  8.825940e-01
  9.594023e-01
  9.446704e-01
  9.823933e-01
  9.961753e-01
  9.999000e-01
  9.922418e-01
  9.265422e-01
  6.301252e-01
  1.772618e-01
  5.230789e-02
  2.545307e-02
  1.944399e-02
  2.267189e-02
  4.712951e-02
  1.387733e-01
  3.785728e-01
  6.944680e-01
  8.518970e-01
  9.053060e-01
  8.905764e-01
  7.708125e-01
  4.371498e-01
  1.311854e-01
  4.566880e-02
  2.687140e-02
  2.299136e-02
  2.358518e-02
  3.133578e-02
  6.849814e-02
  2.167950e-01
  5.557063e-01
  8.055234e-01
  9.066147e-01
  9.409864e-01
  9.424645e-01
  9.127150e-01
  8.222956e-01
  5.950648e-01
  2.481216e-01
  8.077454e-02
  4.055299e-02
  3.795201e-02
  5.041260e-02
  7.000416e-02
  8.651992e-02
  1.054975e-01
  1.555516e-01
  2.266382e-01
  2.485180e-01
  1.981201e-01
  1.102731e-01
  5.579300e-02
  3.786833e-02
  3.207396e-02
  2.772039e-02
  2.273592e-02
  1.828296e-02
  1.544265e-02
  1.519145e-02
  2.075257e-02
  4.211543e-02
  1.075473e-01
  2.824180e-01
  6.052725e-01
  8.423798e-01
  7.708222e-01
  9.043917e-01
  9.562528e-01
  9.708226e-01
  9.553309e-01
  8.535890e-01
  4.967796e-01
  1.404689e-01
  4.573247e-02
  2.458047e-02
  2.222222e-02
  3.966408e-02
  1.232891e-01
  3.890547e-01
  7.549885e-01
  9.215880e-01
  9.745001e-01
  9.892413e-01
  9.845075e-01
  9.327746e-01
  7.077812e-01
  2.199757e-01
  6.146091e-02
  2.850417e-02
  2.205720e-02
  2.123356e-02
  2.356728e-02
  3.467411e-02
  7.524408e-02
  1.841358e-01
  3.674602e-01
  5.779614e-01
  6.928383e-01
  6.990676e-01
  5.989375e-01
  3.957631e-01
  2.055035e-01
  8.811357e-02
  4.469569e-02
  3.949497e-02
  6.053257e-02
  1.263121e-01
  2.192588e-01
  2.649939e-01
  2.353236e-01
  1.571821e-01
  1.039607e-01
  8.385488e-02
  6.804235e-02
  5.296199e-02
  4.947079e-02
  5.716563e-02
  6.238899e-02
  5.599265e-02
  4.077661e-02
  2.714017e-02
  1.939474e-02
  1.546683e-02
  1.416939e-02
  1.721487e-02
  3.200507e-02
  8.080151e-02
  2.167966e-01
  4.956159e-01
  3.368806e-01
  5.968850e-01
  7.553760e-01
  8.027330e-01
  7.619985e-01
  5.698395e-01
  2.419946e-01
  7.870851e-02
  3.396434e-02
  2.360179e-02
  3.104546e-02
  8.706420e-02
  3.105614e-01
  7.236354e-01
  9.239688e-01
  9.821686e-01
  9.972004e-01
  9.999000e-01
  9.995339e-01
  9.707097e-01
  8.088492e-01
  2.767177e-01
  7.142072e-02
  2.882740e-02
  2.082085e-02
  1.944102e-02
  1.982579e-02
  2.245608e-02
  3.130139e-02
  5.391909e-02
  9.510135e-02
  1.491196e-01
  1.869649e-01
  1.898850e-01
  1.569112e-01
  1.043470e-01
  6.226851e-02
  3.986161e-02
  3.552963e-02
  5.218754e-02
  1.311904e-01
  3.933978e-01
  6.883500e-01
  7.754597e-01
  6.873680e-01
  3.907360e-01
  1.357363e-01
  6.158965e-02
  4.667500e-02
  5.497019e-02
  9.611267e-02
  1.689197e-01
  2.134141e-01
  1.912485e-01
  1.187559e-01
  5.684636e-02
  2.973097e-02
  1.985417e-02
  1.577683e-02
  1.425740e-02
  1.615046e-02
  2.675973e-02
  6.100550e-02
  1.513164e-01
  8.840430e-02
  1.618875e-01
  2.309198e-01
  2.643611e-01
  2.439489e-01
  1.695989e-01
  8.334954e-02
  4.033798e-02
  2.579784e-02
  2.543070e-02
  5.319896e-02
  1.942249e-01
  6.105294e-01
  8.954023e-01
  9.769870e-01
  9.962542e-01
  9.999000e-01
  9.999000e-01
  9.997881e-01
  9.753858e-01
  8.274569e-01
  2.893108e-01
  7.206185e-02
  2.735759e-02
  1.926172e-02
  1.793794e-02
  1.792141e-02
  1.850274e-02
  2.026389e-02
  2.445532e-02
  3.193100e-02
  4.165744e-02
  4.893203e-02
  5.008147e-02
  4.490376e-02
  3.679076e-02
  3.094320e-02
  2.979650e-02
  3.707711e-02
  7.403395e-02
  2.406085e-01
  7.119818e-01
  9.246852e-01
  9.646878e-01
  9.169690e-01
  6.839084e-01
  2.210190e-01
  7.440436e-02
  5.484053e-02
  1.011101e-01
  2.852008e-01
  5.761384e-01
  7.137838e-01
  6.597117e-01
  4.110260e-01
  1.554708e-01
  5.516321e-02
  2.763286e-02
  1.959096e-02
  1.644015e-02
  1.526616e-02
  1.661931e-02
  2.367274e-02
  4.377349e-02
  3.119887e-02
  4.540844e-02
  5.998557e-02
  6.826753e-02
  6.544934e-02
  5.180517e-02
  3.551590e-02
  2.573497e-02
  2.262148e-02
  3.217661e-02
  9.716947e-02
  3.804308e-01
  8.152579e-01
  9.603864e-01
  9.930402e-01
  9.993744e-01
  9.999000e-01
  9.999000e-01
  9.976309e-01
  9.690094e-01
  8.070888e-01
  2.655363e-01
  6.469655e-02
  2.445838e-02
  1.750853e-02
  1.659061e-02
  1.672428e-02
  1.712306e-02
  1.786267e-02
  1.925202e-02
  2.147890e-02
  2.424498e-02
  2.658196e-02
  2.760392e-02
  2.725370e-02
  2.644217e-02
  2.654643e-02
  2.915199e-02
  3.982461e-02
  8.791095e-02
  3.027998e-01
  8.162408e-01
  9.759082e-01
  9.999000e-01
  9.660990e-01
  7.794871e-01
  2.655033e-01
  8.595295e-02
  7.339899e-02