# vtk DataFile Version 2.0
time_10.vtk
ASCII
DATASET STRUCTURED_GRID
DIMENSIONS    64    64     1
POINTS    4096 float
  0.000000e+00   0.000000e+00   0.000000e+00
  0.000000e+00   1.000000e+00   0.000000e+00
  0.000000e+00   2.000000e+00   0.000000e+00
  0.000000e+00   3.000000e+00   0.000000e+00
  0.000000e+00   4.000000e+00   0.000000e+00
  0.000000e+00   5.000000e+00   0.000000e+00
  0.000000e+00   6.000000e+00   0.000000e+00
  0.000000e+00   7.000000e+00   0.000000e+00
  0.000000e+00   8.000000e+00   0.000000e+00
  0.000000e+00   9.000000e+00   0.000000e+00
  0.000000e+00   1.000000e+01   0.000000e+00
  0.000000e+00   1.100000e+01   0.000000e+00
  0.000000e+00   1.200000e+01   0.000000e+00
  0.000000e+00   1.300000e+01   0.000000e+00
  0.000000e+00   1.400000e+01   0.000000e+00
  0.000000e+00   1.500000e+01   0.000000e+00
  0.000000e+00   1.600000e+01   0.000000e+00
  0.000000e+00   1.700000e+01   0.000000e+00
  0.000000e+00   1.800000e+01   0.000000e+00
  0.000000e+00   1.900000e+01   0.000000e+00
  0.000000e+00   2.000000e+01   0.000000e+00
  0.000000e+00   2.100000e+01   0.000000e+00
  0.000000e+00   2.200000e+01   0.000000e+00
  0.000000e+00   2.300000e+01   0.000000e+00
  0.000000e+00   2.400000e+01   0.000000e+00
  0.000000e+00   2.500000e+01   0.000000e+00
  0.000000e+00   2.600000e+01   0.000000e+00
  0.000000e+00   2.700000e+01   0.000000e+00
  0.000000e+00   2.800000e+01   0.000000e+00
  0.000000e+00   2.900000e+01   0.000000e+00
  0.000000e+00   3.000000e+01   0.000000e+00
  0.000000e+00   3.100000e+01   0.000000e+00
  0.000000e+00   3.200000e+01   0.000000e+00
  0.000000e+00   3.300000e+01   0.000000e+00
  0.000000e+00   3.400000e+01   0.000000e+00
  0.000000e+00   3.500000e+01   0.000000e+00
  0.000000e+00   3.600000e+01   0.000000e+00
  0.000000e+00   3.700000e+01   0.000000e+00
  0.000000e+00   3.800000e+01   0.000000e+00
  0.000000e+00   3.900000e+01   0.000000e+00
  0.000000e+00   4.000000e+01   0.000000e+00
  0.000000e+00   4.100000e+01   0.000000e+00
  0.000000e+00   4.200000e+01   0.000000e+00
  0.000000e+00   4.300000e+01   0.000000e+00
  0.000000e+00   4.400000e+01   0.000000e+00
  0.000000e+00   4.500000e+01   0.000000e+00
  0.000000e+00   4.600000e+01   0.000000e+00
  0.000000e+00   4.700000e+01   0.000000e+00
  0.000000e+00   4.800000e+01   0.000000e+00
  0.000000e+00   4.900000e+01   0.000000e+00
  0.000000e+00   5.000000e+01   0.000000e+00
  0.000000e+00   5.100000e+01   0.000000e+00
  0.000000e+00   5.200000e+01   0.000000e+00
  0.000000e+00   5.300000e+01   0.000000e+00
  0.000000e+00   5.400000e+01   0.000000e+00
  0.000000e+00   5.500000e+01   0.000000e+00
  0.000000e+00   5.600000e+01   0.000000e+00
  0.000000e+00   5.700000e+01   0.000000e+00
  0.000000e+00   5.800000e+01   0.000000e+00
  0.000000e+00   5.900000e+01   0.000000e+00
  0.000000e+00   6.000000e+01   0.000000e+00
  0.000000e+00   6.100000e+01   0.000000e+00
  0.000000e+00   6.200000e+01   0.000000e+00
  0.000000e+00   6.300000e+01   0.000000e+00
  1.000000e+00   0.000000e+00   0.000000e+00
  1.000000e+00   1.000000e+00   0.000000e+00
  1.000000e+00   2.000000e+00   0.000000e+00
  1.000000e+00   3.000000e+00   0.000000e+00
  1.000000e+00   4.000000e+00   0.000000e+00
  1.000000e+00   5.000000e+00   0.000000e+00
  1.000000e+00   6.000000e+00   0.000000e+00
  1.000000e+00   7.000000e+00   0.000000e+00
  1.000000e+00   8.000000e+00   0.000000e+00
  1.000000e+00   9.000000e+00   0.000000e+00
  1.000000e+00   1.000000e+01   0.000000e+00
  1.000000e+00   1.100000e+01   0.000000e+00
  1.000000e+00   1.200000e+01   0.000000e+00
  1.000000e+00   1.300000e+01   0.000000e+00
  1.000000e+00   1.400000e+01   0.000000e+00
  1.000000e+00   1.500000e+01   0.000000e+00
  1.000000e+00   1.600000e+01   0.000000e+00
  1.000000e+00   1.700000e+01   0.000000e+00
  1.000000e+00   1.800000e+01   0.000000e+00
  1.000000e+00   1.900000e+01   0.000000e+00
  1.000000e+00   2.000000e+01   0.000000e+00
  1.000000e+00   2.100000e+01   0.000000e+00
  1.000000e+00   2.200000e+01   0.000000e+00
  1.000000e+00   2.300000e+01   0.000000e+00
  1.000000e+00   2.400000e+01   0.000000e+00
  1.000000e+00   2.500000e+01   0.000000e+00
  1.000000e+00   2.600000e+01   0.000000e+00
  1.000000e+00   2.700000e+01   0.000000e+00
  1.000000e+00   2.800000e+01   0.000000e+00
  1.000000e+00   2.900000e+01   0.000000e+00
  1.000000e+00   3.000000e+01   0.000000e+00
  1.000000e+00   3.100000e+01   0.000000e+00
  1.000000e+00   3.200000e+01   0.000000e+00
  1.000000e+00   3.300000e+01   0.000000e+00
  1.000000e+00   3.400000e+01   0.000000e+00
  1.000000e+00   3.500000e+01   0.000000e+00
  1.000000e+00   3.600000e+01   0.000000e+00
  1.000000e+00   3.700000e+01   0.000000e+00
  1.000000e+00   3.800000e+01   0.000000e+00
  1.000000e+00   3.900000e+01   0.000000e+00
  1.000000e+00   4.000000e+01   0.000000e+00
  1.000000e+00   4.100000e+01   0.000000e+00
  1.000000e+00   4.200000e+01   0.000000e+00
  1.000000e+00   4.300000e+01   0.000000e+00
  1.000000e+00   4.400000e+01   0.000000e+00
  1.000000e+00   4.500000e+01   0.000000e+00
  1.000000e+00   4.600000e+01   0.000000e+00
  1.000000e+00   4.700000e+01   0.000000e+00
  1.000000e+00   4.800000e+01   0.000000e+00
  1.000000e+00   4.900000e+01   0.000000e+00
  1.000000e+00   5.000000e+01   0.000000e+00
  1.000000e+00   5.100000e+01   0.000000e+00
  1.000000e+00   5.200000e+01   0.000000e+00
  1.000000e+00   5.300000e+01   0.000000e+00
  1.000000e+00   5.400000e+01   0.000000e+00
  1.000000e+00   5.500000e+01   0.000000e+00
  1.000000e+00   5.600000e+01   0.000000e+00
  1.000000e+00   5.700000e+01   0.000000e+00
  1.000000e+00   5.800000e+01   0.000000e+00
  1.000000e+00   5.900000e+01   0.000000e+00
  1.000000e+00   6.000000e+01   0.000000e+00
  1.000000e+00   6.100000e+01   0.000000e+00
  1.000000e+00   6.200000e+01   0.000000e+00
  1.000000e+00   6.300000e+01   0.000000e+00
  2.000000e+00   0.000000e+00   0.000000e+00
  2.000000e+00   1.000000e+00   0.000000e+00
  2.000000e+00   2.000000e+00   0.000000e+00
  2.000000e+00   3.000000e+00   0.000000e+00
  2.000000e+00   4.000000e+00   0.000000e+00
  2.000000e+00   5.000000e+00   0.000000e+00
  2.000000e+00   6.000000e+00   0.000000e+00
  2.000000e+00   7.000000e+00   0.000000e+00
  2.000000e+00   8.000000e+00   0.000000e+00
  2.000000e+00   9.000000e+00   0.000000e+00
  2.000000e+00   1.000000e+01   0.000000e+00
  2.000000e+00   1.100000e+01   0.000000e+00
  2.000000e+00   1.200000e+01   0.000000e+00
  2.000000e+00   1.300000e+01   0.000000e+00
  2.000000e+00   1.400000e+01   0.000000e+00
  2.000000e+00   1.500000e+01   0.000000e+00
  2.000000e+00   1.600000e+01   0.000000e+00
  2.000000e+00   1.700000e+01   0.000000e+00
  2.000000e+00   1.800000e+01   0.000000e+00
  2.000000e+00   1.900000e+01   0.000000e+00
  2.000000e+00   2.000000e+01   0.000000e+00
  2.000000e+00   2.100000e+01   0.000000e+00
  2.000000e+00   2.200000e+01   0.000000e+00
  2.000000e+00   2.300000e+01   0.000000e+00
  2.000000e+00   2.400000e+01   0.000000e+00
  2.000000e+00   2.500000e+01   0.000000e+00
  2.000000e+00   2.600000e+01   0.000000e+00
  2.000000e+00   2.700000e+01   0.000000e+00
  2.000000e+00   2.800000e+01   0.000000e+00
  2.000000e+00   2.900000e+01   0.000000e+00
  2.000000e+00   3.000000e+01   0.000000e+00
  2.000000e+00   3.100000e+01   0.000000e+00
  2.000000e+00   3.200000e+01   0.000000e+00
  2.000000e+00   3.300000e+01   0.000000e+00
  2.000000e+00   3.400000e+01   0.000000e+00
  2.000000e+00   3.500000e+01   0.000000e+00
  2.000000e+00   3.600000e+01   0.000000e+00
  2.000000e+00   3.700000e+01   0.000000e+00
  2.000000e+00   3.800000e+01   0.000000e+00
  2.000000e+00   3.900000e+01   0.000000e+00
  2.000000e+00   4.000000e+01   0.000000e+00
  2.000000e+00   4.100000e+01   0.000000e+00
  2.000000e+00   4.200000e+01   0.000000e+00
  2.000000e+00   4.300000e+01   0.000000e+00
  2.000000e+00   4.400000e+01   0.000000e+00
  2.000000e+00   4.500000e+01   0.000000e+00
  2.000000e+00   4.600000e+01   0.000000e+00
  2.000000e+00   4.700000e+01   0.000000e+00
  2.000000e+00   4.800000e+01   0.000000e+00
  2.000000e+00   4.900000e+01   0.000000e+00
  2.000000e+00   5.000000e+01   0.000000e+00
  2.000000e+00   5.100000e+01   0.000000e+00
  2.000000e+00   5.200000e+01   0.000000e+00
  2.000000e+00   5.300000e+01   0.000000e+00
  2.000000e+00   5.400000e+01   0.000000e+00
  2.000000e+00   5.500000e+01   0.000000e+00
  2.000000e+00   5.600000e+01   0.000000e+00
  2.000000e+00   5.700000e+01   0.000000e+00
  2.000000e+00   5.800000e+01   0.000000e+00
  2.000000e+00   5.900000e+01   0.000000e+00
  2.000000e+00   6.000000e+01   0.000000e+00
  2.000000e+00   6.100000e+01   0.000000e+00
  2.000000e+00   6.200000e+01   0.000000e+00
  2.000000e+00   6.300000e+01   0.000000e+00
  3.000000e+00   0.000000e+00   0.000000e+00
  3.000000e+00   1.000000e+00   0.000000e+00
  3.000000e+00   2.000000e+00   0.000000e+00
  3.000000e+00   3.000000e+00   0.000000e+00
  3.000000e+00   4.000000e+00   0.000000e+00
  3.000000e+00   5.000000e+00   0.000000e+00
  3.000000e+00   6.000000e+00   0.000000e+00
  3.000000e+00   7.000000e+00   0.000000e+00
  3.000000e+00   8.000000e+00   0.000000e+00
  3.000000e+00   9.000000e+00   0.000000e+00
  3.000000e+00   1.000000e+01   0.000000e+00
  3.000000e+00   1.100000e+01   0.000000e+00
  3.000000e+00   1.200000e+01   0.000000e+00
  3.000000e+00   1.300000e+01   0.000000e+00
  3.000000e+00   1.400000e+01   0.000000e+00
  3.000000e+00   1.500000e+01   0.000000e+00
  3.000000e+00   1.600000e+01   0.000000e+00
  3.000000e+00   1.700000e+01   0.000000e+00
  3.000000e+00   1.800000e+01   0.000000e+00
  3.000000e+00   1.900000e+01   0.000000e+00
  3.000000e+00   2.000000e+01   0.000000e+00
  3.000000e+00   2.100000e+01   0.000000e+00
  3.000000e+00   2.200000e+01   0.000000e+00
  3.000000e+00   2.300000e+01   0.000000e+00
  3.000000e+00   2.400000e+01   0.000000e+00
  3.000000e+00   2.500000e+01   0.000000e+00
  3.000000e+00   2.600000e+01   0.000000e+00
[...]
POINT_DATA  4096
SCALARS CON float 1
LOOKUP_TABLE default
  1.787593e-01
  6.450198e-01
  9.272435e-01
  9.918112e-01
  9.999000e-01
  9.994718e-01
  9.624236e-01
  7.706984e-01
  2.449619e-01
  6.802295e-02
  3.320743e-02
  2.808637e-02
  2.836645e-02
  2.947403e-02
  3.062847e-02
  3.161743e-02
  3.219638e-02
  3.207153e-02
  3.098651e-02
  2.878676e-02
  2.553529e-02
  2.183361e-02
  1.879871e-02
  1.726797e-02
  2.060528e-02
  4.527732e-02
  1.558334e-01
  4.886627e-01
  8.298688e-01
  9.533491e-01
  9.865794e-01
  9.946492e-01
  9.959019e-01
  9.941633e-01
  9.872367e-01
  9.648063e-01
  8.963984e-01
  7.067197e-01
  3.472303e-01
  1.116591e-01
  4.110327e-02
  2.635248e-02
  2.568883e-02
  2.842194e-02
  3.107364e-02
  3.228715e-02
  3.172480e-02
  2.972756e-02
  2.717082e-02
  2.559384e-02
  2.758070e-02
  3.906172e-02
  7.532853e-02
  1.470600e-01
  2.150523e-01
  2.337664e-01
  1.957109e-01
  1.222251e-01
  6.112328e-02
  3.117887e-02
  2.099710e-02
  1.935975e-02
  2.416452e-02
  5.006845e-02
  1.168818e-01
  4.285700e-01
  8.160017e-01
  9.471483e-01
  9.765069e-01
  9.717298e-01
  9.096208e-01
  6.574062e-01
  2.031719e-01
  7.034924e-02
  5.339076e-02
  6.191545e-02
  7.281595e-02
  8.176746e-02
  8.869462e-02
  9.357092e-02
  9.554312e-02
  9.329496e-02
  8.577660e-02
  7.269070e-02
  5.498748e-02
  3.678788e-02
  2.502925e-02
  1.939371e-02
  1.769694e-02
  2.386400e-02
  6.013069e-02
  2.027128e-01
  5.583830e-01
  8.513253e-01
  9.566959e-01
  9.869507e-01
  9.952657e-01
  9.973818e-01
  9.969685e-01
  9.926953e-01
  9.757892e-01
  9.121438e-01
  6.939233e-01
  2.662791e-01
  7.693211e-02
  3.327752e-02
  2.501173e-02
  2.393740e-02
  2.405006e-02
  2.409992e-02
  2.389431e-02
  2.356453e-02
  2.355484e-02
  2.535391e-02
  3.495063e-02
  7.684499e-02
  2.275670e-01
  5.142349e-01
  7.173189e-01
  7.609299e-01
  6.783830e-01
  4.439980e-01
  1.969938e-01
  6.970965e-02
  2.883046e-02
  1.930961e-02
  2.094646e-02
  3.754978e-02
  5.879281e-02
  1.868440e-01
  4.924649e-01
  7.440993e-01
  8.271919e-01
  8.155646e-01
  6.861176e-01
  3.671717e-01
  1.343227e-01
  9.946015e-02
  1.546330e-01
  2.305566e-01
  2.901249e-01
  3.323474e-01
  3.626041e-01
  3.824883e-01
  3.890403e-01
  3.771204e-01
  3.422299e-01
  2.815614e-01
  1.950689e-01
  1.007201e-01
  4.563597e-02
  2.582455e-02
  1.901067e-02
  1.776107e-02
  2.659561e-02
  7.102446e-02
  2.286591e-01
  5.812963e-01
  8.535961e-01
  9.553578e-01
  9.866999e-01
  9.962970e-01
  9.993882e-01
  9.998355e-01
  9.964448e-01
  9.752908e-01
  8.678203e-01
  4.780192e-01
  1.301660e-01
  4.425928e-02
  2.740765e-02
  2.420141e-02
  2.351911e-02
  2.325257e-02
  2.304292e-02
  2.296210e-02
  2.360355e-02
  2.787144e-02
  5.023268e-02
  1.576220e-01
  5.353965e-01
  8.460574e-01
  9.434795e-01
  9.592056e-01
  9.314609e-01
  8.232820e-01
  5.360529e-01
  1.881613e-01
  5.461558e-02
  2.242814e-02
  1.793396e-02
  2.521775e-02
  2.849827e-02
  6.325832e-02
  1.443744e-01
  2.437031e-01
  3.049029e-01
  2.993891e-01
  2.286011e-01
  1.357501e-01
  1.142698e-01
  2.419426e-01
  5.231577e-01
  7.353949e-01
  8.174544e-01
  8.465897e-01
  8.593449e-01
  8.661703e-01
  8.686833e-01
  8.651088e-01
  8.492384e-01
  7.988774e-01
  6.448034e-01
  3.288755e-01
  1.068270e-01
  4.052319e-02
  2.314203e-02
  1.765229e-02
  1.729887e-02
  2.782622e-02
  7.500637e-02
  2.311582e-01
  5.690245e-01
  8.405757e-01
  9.491151e-01
  9.849451e-01
  9.965326e-01
  9.999000e-01
  9.999000e-01
  9.909377e-01
  9.211563e-01
  6.063691e-01
  1.679157e-01
  5.245783e-02
  2.972186e-02
  2.523955e-02
  2.417773e-02
  2.375257e-02
  2.345364e-02
  2.333303e-02
  2.424179e-02
  3.081906e-02
  6.731913e-02
  2.448748e-01
  7.521976e-01
  9.502881e-01
  9.927257e-01
  9.973705e-01
  9.894925e-01
  9.531041e-01
  8.149597e-01
  4.274173e-01
  1.172863e-01
  3.290683e-02
  1.663846e-02
  1.736895e-02
  1.649172e-02
  2.597828e-02
  4.394610e-02
  6.586087e-02
  8.100722e-02
  8.219313e-02
  7.247774e-02
  7.476417e-02
  1.643291e-01
  5.252897e-01
  8.422432e-01
  9.449168e-01
  9.711844e-01
  9.777935e-01
  9.798834e-01
  9.810124e-01
  9.817833e-01
  9.818283e-01
  9.793118e-01
  9.660198e-01
  9.035776e-01
  6.668775e-01
  2.172328e-01
  6.432180e-02
  2.904957e-02
  1.961123e-02
  1.607491e-02
  1.651015e-02
  2.739453e-02
  7.214906e-02
  2.134566e-01
  5.227753e-01
  8.073119e-01
  9.331804e-01
  9.776727e-01
  9.929468e-01
  9.961690e-01
  9.827406e-01
  8.986577e-01
  5.576217e-01
  1.556727e-01
  5.132243e-02
  3.037640e-02
  2.608425e-02
  2.499681e-02
  2.452130e-02
  2.414134e-02
  2.389977e-02
  2.482078e-02
  3.273643e-02
  7.843871e-02
  2.985964e-01
  8.254643e-01
  9.744958e-01
  9.998832e-01
  9.999000e-01
  9.990295e-01
  9.868389e-01
  9.291827e-01
  6.996493e-01
  2.389025e-01
  5.781033e-02
  1.854010e-02
  1.314137e-02
  1.110394e-02
  1.470198e-02
  2.023515e-02
  2.636125e-02
  3.118511e-02
  3.391904e-02
  3.849410e-02
  6.727859e-02
  2.209127e-01
  7.184291e-01
  9.419646e-01
  9.912096e-01
  9.987663e-01
  9.993385e-01
  9.992091e-01
  9.992431e-01
  9.994924e-01
  9.998527e-01
  9.999000e-01
  9.980893e-01
  9.705042e-01
  8.168718e-01
  3.090935e-01
  8.527583e-02
  3.417584e-02
  2.176370e-02
  1.713307e-02
  1.487489e-02
  1.576229e-02
  2.579808e-02
  6.393057e-02
  1.783102e-01
  4.338608e-01
  7.336184e-01
  8.850309e-01
  9.432147e-01
  9.538890e-01
  9.169572e-01
  7.562562e-01
  3.505073e-01
  1.040217e-01
  4.257258e-02
  2.949272e-02
  2.660887e-02
  2.582829e-02
  2.545872e-02
  2.509059e-02
  2.472233e-02
  2.537499e-02
  3.316012e-02
  8.038117e-02
  3.092667e-01
  8.364424e-01
  9.768127e-01
  9.996692e-01
  9.999000e-01
  9.999000e-01
  9.953476e-01
  9.697103e-01
  8.503713e-01
  4.437921e-01
  1.116209e-01
  2.692516e-02
  1.145609e-02
  8.321339e-03
  9.824088e-03
  1.294504e-02
  1.633226e-02
  1.944548e-02
  2.263126e-02
  2.992330e-02
  6.365789e-02
  2.302451e-01
  7.506532e-01
  9.560960e-01
  9.968087e-01
  9.999000e-01
  9.999000e-01
  9.999000e-01
  9.999000e-01
  9.999000e-01
  9.999000e-01
  9.999000e-01
  9.999000e-01
  9.782425e-01
  8.393069e-01
  3.303891e-01
  9.055378e-02
  3.594286e-02
  2.313398e-02
  1.853867e-02
  1.588441e-02
  1.449632e-02
  1.574392e-02
  2.427738e-02
  5.295679e-02
  1.308726e-01
  2.972692e-01
  5.439827e-01
  7.116825e-01
  7.451403e-01
  6.472419e-01
  3.875383e-01
  1.500086e-01
  5.812989e-02
  3.403794e-02
  2.835595e-02
  2.705903e-02
  2.683269e-02
  2.688540e-02
  2.686025e-02
  2.649874e-02
  2.655484e-02
  3.262530e-02
  7.388070e-02
  2.808170e-01
  8.104876e-01
  9.689856e-01
  9.974301e-01
  9.999000e-01
  9.999000e-01
  9.977010e-01
  9.855358e-01
  9.272982e-01
  6.838820e-01
  2.197175e-01
  5.024101e-02
  1.366733e-02
  8.919305e-03
  7.250114e-03
  9.302105e-03
  1.215841e-02
  1.508711e-02
  1.836244e-02
  2.506875e-02
  5.230287e-02
  1.835109e-01
  6.421846e-01
  9.165239e-01
  9.844889e-01
  9.970641e-01
  9.987957e-01
  9.987293e-01
  9.985063e-01
  9.984136e-01
  9.983746e-01
  9.975723e-01
  9.912342e-01
  9.516707e-01
  7.674390e-01
  2.707036e-01
  7.711079e-02
  3.376701e-02
  2.350087e-02
  1.979297e-02
  1.770045e-02
  1.667074e-02
  1.725737e-02
  2.051307e-02
  2.876029e-02
  4.839238e-02
  9.019386e-02
  1.582869e-01
  2.185711e-01
  2.317859e-01
  1.897707e-01
  1.149796e-01
  5.897663e-02
  3.618912e-02
  2.940267e-02
  2.779132e-02
  2.778764e-02
  2.861683e-02
  3.025825e-02
  3.210161e-02
  3.246859e-02
  3.109545e-02
  3.316006e-02
  6.228017e-02
  2.224292e-01
  7.258504e-01
  9.435632e-01
  9.910100e-01
  9.990529e-01
  9.998036e-01
  9.983759e-01
  9.921055e-01
  9.639914e-01
  8.371938e-01
  4.265341e-01
  1.127845e-01
  2.663734e-02
  2.042874e-02
  8.723659e-03
  7.872907e-03
  9.870962e-03
  1.259153e-02
  1.568695e-02
  2.069575e-02
  3.663142e-02
  1.063808e-01
  3.748446e-01
  7.591606e-01
  9.172343e-01
  9.623389e-01
  9.737778e-01
  9.762729e-01
  9.764408e-01
  9.757715e-01
  9.736305e-01
  9.659213e-01
  9.369856e-01
  8.331618e-01
  5.321999e-01
  1.648178e-01
  5.444035e-02
  2.955806e-02
  2.331372e-02
  2.111561e-02
  2.074012e-02
  2.334664e-02
  3.132979e-02
  4.472781e-02
  5.898118e-02
  7.256889e-02
  8.658231e-02
  9.936090e-02
  1.017043e-01
  8.774122e-02
  6.580147e-02
  4.594734e-02
  3.381406e-02
  2.892939e-02
  2.766775e-02
  2.792982e-02
  2.943255e-02
  3.343437e-02
  4.227468e-02
  5.422855e-02
  5.926413e-02
  5.210328e-02
  4.184625e-02
  5.141216e-02
  1.465924e-01
  5.244598e-01
  8.689635e-01
  9.701823e-01
  9.934007e-01
  9.980821e-01
  9.980267e-01
  9.948384e-01
  9.818901e-01
  9.253739e-01
  7.029487e-01
  2.736511e-01
  7.412921e-02
  7.346953e-02
  2.618263e-02
  1.337783e-02
  1.106327e-02
  1.207856e-02
  1.430512e-02
  1.762376e-02
  2.508620e-02
  5.098090e-02
  1.443581e-01
  3.746836e-01
  6.493445e-01
  7.818284e-01
  8.260518e-01
  8.392886e-01
  8.418671e-01
  8.389062e-01
  8.280668e-01
  7.957319e-01
  6.998846e-01
  4.711302e-01
  2.106048e-01
  7.503251e-02
  3.576190e-02
  2.592450e-02
  2.331194e-02
  2.341180e-02
  2.832980e-02
  4.720310e-02
  9.539148e-02
  1.712302e-01
  2.380766e-01
  2.812357e-01
  2.993565e-01
  2.861057e-01
  2.320756e-01
  1.452046e-01
  7.296293e-02
  4.023513e-02
  2.980218e-02
  2.730635e-02
  2.736953e-02
  2.889544e-02
  3.375539e-02
  4.949693e-02
  9.270194e-02
  1.582534e-01
  1.884136e-01
  1.523254e-01
  8.717238e-02
  5.393783e-02
  8.332901e-02
  2.677766e-01
  6.745720e-01
  9.015522e-01
  9.717360e-01
  9.909478e-01
  9.956377e-01
  9.952806e-01
  9.898807e-01
  9.676393e-01
  8.778951e-01
  5.944423e-01
  2.294770e-01
  2.708320e-01
  1.117599e-01
  5.038209e-02
  2.743636e-02
  1.887268e-02
  1.648511e-02
  1.705283e-02
  1.988053e-02
  2.769638e-02
  5.063049e-02
  1.050815e-01
  1.851730e-01
  2.506301e-01
  2.901160e-01
  3.091814e-01
  3.145416e-01
  3.095776e-01
  2.933218e-01
  2.607557e-01
  2.054218e-01
  1.302350e-01
  6.749301e-02
  3.689158e-02
  2.688528e-02
  2.414079e-02
  2.414354e-02
  2.862418e-02
  5.035214e-02
  1.334490e-01
  3.452485e-01
  6.207378e-01
  7.681269e-01
  8.195687e-01
  8.305630e-01
  8.086346e-01
  7.143769e-01
  4.678315e-01
  1.908965e-01
  6.710180e-02
  3.468806e-02
  2.806493e-02
  2.785757e-02
  3.111825e-02
  4.458341e-02
  9.951291e-02
  2.820277e-01
  5.450405e-01
  6.477407e-01
  5.285927e-01
  2.633707e-01
  9.320804e-02
  5.680581e-02
  1.109943e-01
  3.279987e-01
  6.896498e-01
  8.900702e-01
  9.618522e-01
  9.853048e-01
  9.921537e-01
  9.921232e-01
  9.847752e-01
  9.554872e-01
  8.532048e-01
  5.918283e-01
  7.002497e-01
  4.258001e-01
  2.222148e-01
  1.146151e-01
  5.912587e-02
  3.288816e-02
  2.234088e-02
  1.975489e-02
  2.092372e-02
  2.556205e-02
  3.553844e-02
  4.980748e-02
  6.228216e-02
  7.032231e-02
  7.449919e-02
  7.609377e-02
  7.575046e-02
  7.303836e-02
  6.675475e-02
  5.605683e-02
  4.249486e-02
  3.149194e-02
  2.589157e-02
  2.395507e-02
  2.378252e-02
  2.609817e-02
  3.913966e-02
  1.025744e-01
  3.522022e-01
  7.390144e-01
  9.080738e-01
  9.589862e-01
  9.728993e-01
  9.753828e-01
  9.690009e-01
  9.367477e-01
  8.113466e-01
  4.557045e-01
  1.321012e-01
  4.695486e-02
  3.032377e-02
  2.883355e-02
  3.459846e-02
  6.364903e-02
  1.984045e-01
  6.263293e-01
  8.786330e-01
  9.328960e-01
  8.704363e-01
  6.007381e-01
  1.824511e-01
  5.976074e-02
  5.020135e-02
  1.116803e-01
  2.998937e-01
  6.258527e-01
  8.456236e-01
  9.406603e-01
  9.759237e-01
  9.875923e-01
  9.891970e-01
  9.820336e-01
  9.549434e-01
  8.763171e-01
  9.249464e-01
  8.389348e-01
  6.910835e-01
  4.533360e-01
  2.386806e-01
  1.086708e-01
  4.713796e-02
  2.633539e-02
  2.094738e-02
  2.016612e-02
  2.104488e-02
  2.267322e-02
  2.418191e-02
  2.538105e-02
  2.666963e-02
  2.849553e-02
  3.078453e-02
  3.256566e-02
  3.249944e-02
  3.033332e-02
  2.729345e-02
  2.491967e-02
  2.372901e-02
  2.341387e-02
  2.409195e-02
  2.861134e-02
  5.309447e-02
  1.765963e-01
  6.205567e-01
  9.086357e-01
  9.820433e-01
  9.964639e-01
  9.990278e-01
  9.994349e-01
  9.983377e-01
  9.890036e-01
  9.337931e-01
  6.946999e-01
  2.087378e-01
  6.153499e-02
  3.298212e-02
  2.980723e-02
  3.751787e-02
  7.969722e-02
  2.778414e-01
  7.941417e-01
  9.679712e-01
  9.971626e-01
  9.645715e-01
  7.783671e-01
  2.570469e-01
  7.025429e-02
  3.354286e-02
  4.033679e-02
  8.944893e-02
  2.254781e-01
  4.937529e-01
  7.646433e-01
  9.043071e-01
  9.609793e-01
  9.817122e-01
  9.871972e-01
  9.833913e-01
  9.667097e-01
  9.816855e-01
  9.655092e-01
  9.309353e-01
  8.535084e-01
  6.854898e-01
  3.727571e-01
  1.342954e-01
  4.801870e-02
  2.575575e-02
  2.015032e-02
  1.834457e-02
  1.754048e-02
  1.737584e-02
  1.837616e-02
  2.167414e-02
  2.841257e-02
  3.802371e-02
  4.612858e-02
  4.670276e-02
  3.979822e-02
  3.171674e-02
  2.663171e-02
  2.439791e-02
  2.370123e-02
  2.441482e-02
  3.006722e-02
  6.133546e-02
  2.193859e-01
  7.337034e-01
  9.519692e-01
  9.960171e-01
  9.999000e-01
  9.999000e-01
  9.999000e-01
  9.999000e-01
  9.976012e-01
  9.613574e-01
  7.716972e-01
  2.450810e-01
  6.890659e-02
  3.446691e-02
  3.035928e-02
  3.821898e-02
  8.212444e-02
  2.884005e-01
  8.092757e-01
  9.738047e-01
  9.999000e-01
  9.705905e-01
  7.938185e-01
  2.668035e-01
  7.186378e-02
  2.984843e-02
  2.281613e-02
  3.049515e-02
  6.228257e-02
  1.491830e-01
  3.430024e-01
  6.450893e-01
  8.460477e-01
  9.386820e-01
  9.745400e-01
  9.863910e-01
  9.877531e-01
  9.927312e-01
  9.932307e-01
  9.885881e-01
  9.727586e-01
  9.205876e-01
  7.448907e-01
  3.401172e-01
  9.729078e-02
  3.605985e-02
  2.212267e-02
  1.814164e-02
  1.669055e-02
  1.728385e-02
  2.227715e-02
  3.705508e-02
  6.798587e-02
  1.133068e-01
  1.504302e-01
  1.467387e-01
  1.043126e-01
  6.023993e-02
  3.596053e-02
  2.706662e-02
  2.434824e-02
  2.437014e-02
  2.937250e-02
  5.799131e-02
  2.030854e-01
  6.950696e-01
  9.383355e-01
  9.920177e-01
  9.999000e-01
  9.999000e-01
  9.999000e-01
  9.999000e-01
  9.929832e-01
  9.458448e-01
  7.272040e-01
  2.229952e-01
  6.477699e-02
  3.425936e-02
  3.086729e-02
  3.735991e-02
  7.086449e-02
  2.269284e-01
  6.926356e-01
  9.153707e-01
  9.577695e-01
  9.063399e-01
  6.626651e-01
  2.056329e-01
  6.063393e-02
  2.821944e-02
  2.000167e-02
  1.826055e-02
  2.271220e-02
  4.107465e-02
  9.399240e-02
  2.272564e-01
  4.906313e-01
  7.662059e-01
  9.098877e-01
  9.664618e-01
  9.863802e-01
  9.860094e-01
  9.964626e-01
  9.999000e-01
  9.991788e-01
  9.843481e-01
  9.038912e-01
  5.857757e-01
  1.630634e-01
  4.898026e-02
  2.459077e-02
  1.850291e-02
  1.751097e-02
  2.280355e-02
  4.545106e-02
  1.116265e-01
  2.478557e-01
  4.317146e-01
  5.649737e-01
  5.427493e-01
  3.670243e-01
  1.711871e-01
  6.563273e-02
  3.366297e-02
  2.545886e-02
  2.391191e-02
  2.683450e-02
  4.528120e-02
  1.377657e-01
  4.919794e-01
  8.451480e-01
  9.573307e-01
  9.857784e-01
  9.925463e-01
  9.926383e-01
  9.864043e-01
  9.606235e-01
  8.600121e-01
  5.328394e-01
  1.537811e-01
  5.227699e-02
  3.385193e-02
  3.397351e-02
  4.056111e-02
  5.979820e-02
  1.351556e-01
  3.861504e-01
  6.735867e-01
  7.537851e-01
  6.458270e-01
  3.400378e-01
  1.114332e-01
  4.458832e-02
  2.748483e-02
  2.146358e-02
  1.798373e-02
  1.618406e-02
  1.776383e-02
  2.779211e-02
  6.009720e-02
  1.489840e-01
  3.570141e-01
  6.785986e-01
  8.764975e-01
  9.569940e-01
  9.419187e-01
  9.816253e-01
  9.960119e-01
  9.999000e-01
  9.937729e-01
  9.356689e-01
  6.669089e-01
  1.908437e-01
  5.477247e-02
  2.573665e-02
  1.928564e-02
  2.212075e-02
  4.546395e-02
  1.344375e-01
  3.725097e-01
  6.940622e-01
  8.564909e-01
  9.127176e-01
  9.010309e-01
  7.874796e-01
  4.603530e-01
  1.379316e-01
  4.709992e-02
  2.725344e-02
  2.320735e-02
  2.385635e-02
  3.197666e-02
  7.073219e-02
  2.240809e-01
  5.635381e-01
  8.064959e-01
  9.048052e-01
  9.386237e-01
  9.396635e-01
  9.091492e-01
  8.186936e-01
  5.932021e-01
  2.492485e-01
  8.153029e-02
  4.098791e-02
  3.836106e-02
  5.091193e-02
  7.027279e-02
  8.621430e-02
  1.045523e-01
  1.542520e-01
  2.264145e-01
  2.503771e-01
  2.016058e-01
  1.132128e-01
  5.704682e-02
  3.841934e-02
  3.240368e-02
  2.796449e-02
  2.291540e-02
  1.839710e-02
  1.550358e-02
  1.516298e-02
  2.042551e-02
  4.077606e-02
  1.031524e-01
  2.708757e-01
  5.886631e-01
  8.341378e-01
  7.631415e-01
  9.023269e-01
  9.562898e-01
  9.721244e-01
  9.600479e-01
  8.710233e-01
  5.426110e-01
  1.540992e-01
  4.824157e-02
  2.488739e-02
  2.188047e-02
  3.814430e-02
  1.178620e-01
  3.764442e-01
  7.478343e-01
  9.199775e-01
  9.746933e-01
  9.901391e-01
  9.863601e-01
  9.375712e-01
  7.206891e-01
  2.271808e-01
  6.317039e-02
  2.897288e-02
  2.229609e-02
  2.145648e-02
  2.389382e-02
  3.539118e-02
  7.692156e-02
  1.857407e-01
  3.644178e-01
  5.691434e-01
  6.827861e-01
  6.874405e-01
  5.846818e-01
  3.853278e-01
  2.024122e-01
  8.800239e-02
  4.506956e-02
  4.007442e-02
  6.173110e-02
  1.286894e-01
  2.209525e-01
  2.646166e-01
  2.332975e-01
  1.551587e-01
  1.032460e-01
  8.409126e-02
  6.878451e-02
  5.370566e-02
  5.004245e-02
  5.776036e-02
  6.305791e-02
  5.668703e-02
  4.133695e-02
  2.742454e-02
  1.950612e-02
  1.551352e-02
  1.414024e-02
  1.691918e-02
  3.082694e-02
  7.700324e-02
  2.068455e-01
  4.795065e-01
  3.302062e-01
  5.936391e-01
  7.570207e-01
  8.085899e-01
  7.765112e-01
  6.025677e-01
  2.693119e-01
  8.605093e-02
  3.548899e-02
  2.372793e-02
  3.019090e-02
  8.309205e-02
  2.974558e-01
  7.120935e-01
  9.204292e-01
  9.812736e-01
  9.969955e-01
  9.999000e-01
  9.998117e-01
  9.720808e-01
  8.140007e-01
  2.824935e-01
  7.295438e-02
  2.928214e-02
  2.105430e-02
  1.962898e-02
  2.001859e-02
  2.270529e-02
  3.165108e-02
  5.406840e-02
  9.400074e-02
  1.459313e-01
  1.822929e-01
  1.845316e-01
  1.519654e-01
  1.014457e-01
  6.142796e-02
  3.993407e-02
  3.598983e-02
  5.338849e-02
  1.350085e-01
  4.022619e-01
  6.927528e-01
  7.754037e-01
  6.840056e-01
  3.857181e-01
  1.340971e-01
  6.127731e-02
  4.677383e-02
  5.530151e-02
  9.696117e-02
  1.707446e-01
  2.160013e-01
  1.943894e-01
  1.215727e-01
  5.816563e-02
  3.009589e-02
  1.994134e-02
  1.581112e-02
  1.423629e-02
  1.591544e-02
  2.587364e-02
  5.848633e-02
  1.459581e-01
  8.722029e-02
  1.618009e-01
  2.338592e-01
  2.714756e-01
  2.549372e-01
  1.819300e-01
  9.084951e-02
  4.284870e-02
  2.648454e-02
  2.529742e-02
  5.137255e-02
  1.859367e-01
  5.941313e-01
  8.896070e-01
  9.754885e-01
  9.958886e-01
  9.999000e-01
  9.999000e-01
  9.998349e-01
  9.758499e-01
  8.296295e-01
  2.929852e-01
  7.314017e-02
  2.772146e-02
  1.946304e-02
  1.809004e-02
  1.804705e-02
  1.860855e-02
  2.034343e-02
  2.443733e-02
  3.163354e-02
  4.093785e-02
  4.788931e-02
  4.892179e-02
  4.390339e-02
  3.624436e-02
  3.086030e-02
  3.003416e-02
  3.775471e-02
  7.624267e-02
  2.482498e-01
  7.207011e-01
  9.269676e-01
  9.646147e-01
  9.155832e-01
  6.803292e-01
  2.191751e-01
  7.395053e-02
  5.480720e-02
  1.015473e-01
  2.873731e-01
  5.805521e-01
  7.185982e-01
  6.674096e-01
  4.218766e-01
  1.612923e-01
  5.659058e-02
  2.789326e-02
  1.966175e-02
  1.650930e-02
  1.531559e-02
  1.654317e-02
  2.327354e-02
  4.284252e-02
  3.130912e-02
  4.581015e-02
  6.111627e-02
  7.039016e-02
  6.836300e-02
  5.476290e-02
  3.746609e-02
  2.666066e-02
  2.297533e-02
  3.183333e-02
  9.416284e-02
  3.677146e-01
  8.069037e-01
  9.580318e-01
  9.924313e-01
  9.992391e-01
  9.999000e-01
  9.999000e-01
  9.975992e-01
  9.690163e-01
  8.074467e-01
  2.669084e-01
  6.521045e-02
  2.469067e-02
  1.765887e-02
  1.670053e-02
  1.679836e-02
  1.715949e-02
  1.786044e-02
  1.921046e-02
  2.140052e-02
  2.415295e-02
  2.651145e-02
  2.755291e-02
  2.721745e-02
  2.646506e-02
  2.667812e-02
  2.947077e-02
  4.068929e-02
  9.103399e-02
  3.138957e-01
  8.240112e-01
  9.777125e-01
  9.999000e-01
  9.658252e-01
  7.787563e-01
  2.647324e-01
  8.568301e-02
  7.331503e-02