# vtk DataFile Version 2.0
time_10.vtk
ASCII
DATASET STRUCTURED_GRID
DIMENSIONS    64    64     1
POINTS    4096 float
  0.000000e+00   0.000000e+00   0.000000e+00
  0.000000e+00   1.000000e+00   0.000000e+00
  0.000000e+00   2.000000e+00   0.000000e+00
  0.000000e+00   3.000000e+00   0.000000e+00
  0.000000e+00   4.000000e+00   0.000000e+00
  0.000000e+00   5.000000e+00   0.000000e+00
  0.000000e+00   6.000000e+00   0.000000e+00
  0.000000e+00   7.000000e+00   0.000000e+00
  0.000000e+00   8.000000e+00   0.000000e+00
  0.000000e+00   9.000000e+00   0.000000e+00
  0.000000e+00   1.000000e+01   0.000000e+00
  0.000000e+00   1.100000e+01   0.000000e+00
  0.000000e+00   1.200000e+01   0.000000e+00
  0.000000e+00   1.300000e+01   0.000000e+00
  0.000000e+00   1.400000e+01   0.000000e+00
  0.000000e+00   1.500000e+01   0.000000e+00
  0.000000e+00   1.600000e+01   0.000000e+00
  0.000000e+00   1.700000e+01   0.000000e+00
  0.000000e+00   1.800000e+01   0.000000e+00
  0.000000e+00   1.900000e+01   0.000000e+00
  0.000000e+00   2.000000e+01   0.000000e+00
  0.000000e+00   2.100000e+01   0.000000e+00
  0.000000e+00   2.200000e+01   0.000000e+00
  0.000000e+00   2.300000e+01   0.000000e+00
  0.000000e+00   2.400000e+01   0.000000e+00
  0.000000e+00   2.500000e+01   0.000000e+00
  0.000000e+00   2.600000e+01   0.000000e+00
  0.000000e+00   2.700000e+01   0.000000e+00
  0.000000e+00   2.800000e+01   0.000000e+00
  0.000000e+00   2.900000e+01   0.000000e+00
  0.000000e+00   3.000000e+01   0.000000e+00
  0.000000e+00   3.100000e+01   0.000000e+00
  0.000000e+00   3.200000e+01   0.000000e+00
  0.000000e+00   3.300000e+01   0.000000e+00
  0.000000e+00   3.400000e+01   0.000000e+00
  0.000000e+00   3.500000e+01   0.000000e+00
  0.000000e+00   3.600000e+01   0.000000e+00
  0.000000e+00   3.700000e+01   0.000000e+00
  0.000000e+00   3.800000e+01   0.000000e+00
  0.000000e+00   3.900000e+01   0.000000e+00
  0.000000e+00   4.000000e+01   0.000000e+00
  0.000000e+00   4.100000e+01   0.000000e+00
  0.000000e+00   4.200000e+01   0.000000e+00
  0.000000e+00   4.300000e+01   0.000000e+00
  0.000000e+00   4.400000e+01   0.000000e+00
  0.000000e+00   4.500000e+01   0.000000e+00
  0.000000e+00   4.600000e+01   0.000000e+00
  0.000000e+00   4.700000e+01   0.000000e+00
  0.000000e+00   4.800000e+01   0.000000e+00
  0.000000e+00   4.900000e+01   0.000000e+00
  0.000000e+00   5.000000e+01   0.000000e+00
  0.000000e+00   5.100000e+01   0.000000e+00
  0.000000e+00   5.200000e+01   0.000000e+00
  0.000000e+00   5.300000e+01   0.000000e+00
  0.000000e+00   5.400000e+01   0.000000e+00
  0.000000e+00   5.500000e+01   0.000000e+00
  0.000000e+00   5.600000e+01   0.000000e+00
  0.000000e+00   5.700000e+01   0.000000e+00
  0.000000e+00   5.800000e+01   0.000000e+00
  0.000000e+00   5.900000e+01   0.000000e+00
  0.000000e+00   6.000000e+01   0.000000e+00
  0.000000e+00   6.100000e+01   0.000000e+00
  0.000000e+00   6.200000e+01   0.000000e+00
  0.000000e+00   6.300000e+01   0.000000e+00
  1.000000e+00   0.000000e+00   0.000000e+00
  1.000000e+00   1.000000e+00   0.000000e+00
  1.000000e+00   2.000000e+00   0.000000e+00
  1.000000e+00   3.000000e+00   0.000000e+00
  1.000000e+00   4.000000e+00   0.000000e+00
  1.000000e+00   5.000000e+00   0.000000e+00
  1.000000e+00   6.000000e+00   0.000000e+00
  1.000000e+00   7.000000e+00   0.000000e+00
  1.000000e+00   8.000000e+00   0.000000e+00
  1.000000e+00   9.000000e+00   0.000000e+00
  1.000000e+00   1.000000e+01   0.000000e+00
  1.000000e+00   1.100000e+01   0.000000e+00
  1.000000e+00   1.200000e+01   0.000000e+00
  1.000000e+00   1.300000e+01   0.000000e+00
  1.000000e+00   1.400000e+01   0.000000e+00
  1.000000e+00   1.500000e+01   0.000000e+00
  1.000000e+00   1.600000e+01   0.000000e+00
  1.000000e+00   1.700000e+01   0.000000e+00
  1.000000e+00   1.800000e+01   0.000000e+00
  1.000000e+00   1.900000e+01   0.000000e+00
  1.000000e+00   2.000000e+01   0.000000e+00
  1.000000e+00   2.100000e+01   0.000000e+00
  1.000000e+00   2.200000e+01   0.000000e+00
  1.000000e+00   2.300000e+01   0.000000e+00
  1.000000e+00   2.400000e+01   0.000000e+00
  1.000000e+00   2.500000e+01   0.000000e+00
  1.000000e+00   2.600000e+01   0.000000e+00
  1.000000e+00   2.700000e+01   0.000000e+00
  1.000000e+00   2.800000e+01   0.000000e+00
  1.000000e+00   2.900000e+01   0.000000e+00
  1.000000e+00   3.000000e+01   0.000000e+00
  1.000000e+00   3.100000e+01   0.000000e+00
  1.000000e+00   3.200000e+01   0.000000e+00
  1.000000e+00   3.300000e+01   0.000000e+00
  1.000000e+00   3.400000e+01   0.000000e+00
  1.000000e+00   3.500000e+01   0.000000e+00
  1.000000e+00   3.600000e+01   0.000000e+00
  1.000000e+00   3.700000e+01   0.000000e+00
  1.000000e+00   3.800000e+01   0.000000e+00
  1.000000e+00   3.900000e+01   0.000000e+00
  1.000000e+00   4.000000e+01   0.000000e+00
  1.000000e+00   4.100000e+01   0.000000e+00
  1.000000e+00   4.200000e+01   0.000000e+00
  1.000000e+00   4.300000e+01   0.000000e+00
  1.000000e+00   4.400000e+01   0.000000e+00
  1.000000e+00   4.500000e+01   0.000000e+00
  1.000000e+00   4.600000e+01   0.000000e+00
  1.000000e+00   4.700000e+01   0.000000e+00
  1.000000e+00   4.800000e+01   0.000000e+00
  1.000000e+00   4.900000e+01   0.000000e+00
  1.000000e+00   5.000000e+01   0.000000e+00
  1.000000e+00   5.100000e+01   0.000000e+00
  1.000000e+00   5.200000e+01   0.000000e+00
  1.000000e+00   5.300000e+01   0.000000e+00
  1.000000e+00   5.400000e+01   0.000000e+00
  1.000000e+00   5.500000e+01   0.000000e+00
  1.000000e+00   5.600000e+01   0.000000e+00
  1.000000e+00   5.700000e+01   0.000000e+00
  1.000000e+00   5.800000e+01   0.000000e+00
  1.000000e+00   5.900000e+01   0.000000e+00
  1.000000e+00   6.000000e+01   0.000000e+00
  1.000000e+00   6.100000e+01   0.000000e+00
  1.000000e+00   6.200000e+01   0.000000e+00
  1.000000e+00   6.300000e+01   0.000000e+00
  2.000000e+00   0.000000e+00   0.000000e+00
  2.000000e+00   1.000000e+00   0.000000e+00
  2.000000e+00   2.000000e+00   0.000000e+00
  2.000000e+00   3.000000e+00   0.000000e+00
  2.000000e+00   4.000000e+00   0.000000e+00
  2.000000e+00   5.000000e+00   0.000000e+00
  2.000000e+00   6.000000e+00   0.000000e+00
  2.000000e+00   7.000000e+00   0.000000e+00
  2.000000e+00   8.000000e+00   0.000000e+00
  2.000000e+00   9.000000e+00   0.000000e+00
  2.000000e+00   1.000000e+01   0.000000e+00
  2.000000e+00   1.100000e+01   0.000000e+00
  2.000000e+00   1.200000e+01   0.000000e+00
  2.000000e+00   1.300000e+01   0.000000e+00
  2.000000e+00   1.400000e+01   0.000000e+00
  2.000000e+00   1.500000e+01   0.000000e+00
  2.000000e+00   1.600000e+01   0.000000e+00
  2.000000e+00   1.700000e+01   0.000000e+00
  2.000000e+00   1.800000e+01   0.000000e+00
  2.000000e+00   1.900000e+01   0.000000e+00
  2.000000e+00   2.000000e+01   0.000000e+00
  2.000000e+00   2.100000e+01   0.000000e+00
  2.000000e+00   2.200000e+01   0.000000e+00
  2.000000e+00   2.300000e+01   0.000000e+00
  2.000000e+00   2.400000e+01   0.000000e+00
  2.000000e+00   2.500000e+01   0.000000e+00
  2.000000e+00   2.600000e+01   0.000000e+00
  2.000000e+00   2.700000e+01   0.000000e+00
  2.000000e+00   2.800000e+01   0.000000e+00
  2.000000e+00   2.900000e+01   0.000000e+00
  2.000000e+00   3.000000e+01   0.000000e+00
  2.000000e+00   3.100000e+01   0.000000e+00
  2.000000e+00   3.200000e+01   0.000000e+00
  2.000000e+00   3.300000e+01   0.000000e+00
  2.000000e+00   3.400000e+01   0.000000e+00
  2.000000e+00   3.500000e+01   0.000000e+00
  2.000000e+00   3.600000e+01   0.000000e+00
  2.000000e+00   3.700000e+01   0.000000e+00
  2.000000e+00   3.800000e+01   0.000000e+00
  2.000000e+00   3.900000e+01   0.000000e+00
  2.000000e+00   4.000000e+01   0.000000e+00
  2.000000e+00   4.100000e+01   0.000000e+00
  2.000000e+00   4.200000e+01   0.000000e+00
  2.000000e+00   4.300000e+01   0.000000e+00
  2.000000e+00   4.400000e+01   0.000000e+00
  2.000000e+00   4.500000e+01   0.000000e+00
  2.000000e+00   4.600000e+01   0.000000e+00
  2.000000e+00   4.700000e+01   0.000000e+00
  2.000000e+00   4.800000e+01   0.000000e+00
  2.000000e+00   4.900000e+01   0.000000e+00
  2.000000e+00   5.000000e+01   0.000000e+00
  2.000000e+00   5.100000e+01   0.000000e+00
  2.000000e+00   5.200000e+01   0.000000e+00
  2.000000e+00   5.300000e+01   0.000000e+00
  2.000000e+00   5.400000e+01   0.000000e+00
  2.000000e+00   5.500000e+01   0.000000e+00
  2.000000e+00   5.600000e+01   0.000000e+00
  2.000000e+00   5.700000e+01   0.000000e+00
  2.000000e+00   5.800000e+01   0.000000e+00
  2.000000e+00   5.900000e+01   0.000000e+00
  2.000000e+00   6.000000e+01   0.000000e+00
  2.000000e+00   6.100000e+01   0.000000e+00
  2.000000e+00   6.200000e+01   0.000000e+00
  2.000000e+00   6.300000e+01   0.000000e+00
  3.000000e+00   0.000000e+00   0.000000e+00
  3.000000e+00   1.000000e+00   0.000000e+00
  3.000000e+00   2.000000e+00   0.000000e+00
  3.000000e+00   3.000000e+00   0.000000e+00
  3.000000e+00   4.000000e+00   0.000000e+00
  3.000000e+00   5.000000e+00   0.000000e+00
  3.000000e+00   6.000000e+00   0.000000e+00
  3.000000e+00   7.000000e+00   0.000000e+00
  3.000000e+00   8.000000e+00   0.000000e+00
  3.000000e+00   9.000000e+00   0.000000e+00
  3.000000e+00   1.000000e+01   0.000000e+00
  3.000000e+00   1.100000e+01   0.000000e+00
  3.000000e+00   1.200000e+01   0.000000e+00
  3.000000e+00   1.300000e+01   0.000000e+00
  3.000000e+00   1.400000e+01   0.000000e+00
  3.000000e+00   1.500000e+01   0.000000e+00
  3.000000e+00   1.600000e+01   0.000000e+00
  3.000000e+00   1.700000e+01   0.000000e+00
  3.000000e+00   1.800000e+01   0.000000e+00
  3.000000e+00   1.900000e+01   0.000000e+00
  3.000000e+00   2.000000e+01   0.000000e+00
  3.000000e+00   2.100000e+01   0.000000e+00
  3.000000e+00   2.200000e+01   0.000000e+00
  3.000000e+00   2.300000e+01   0.000000e+00
  3.000000e+00   2.400000e+01   0.000000e+00
  3.000000e+00   2.500000e+01   0.000000e+00
  3.000000e+00   2.600000e+01   0.000000e+00
[...]
POINT_DATA  4096
SCALARS CON float 1
LOOKUP_TABLE default
  7.523368e-01
  9.554984e-01
  9.965222e-01
  9.999000e-01
  9.988748e-01
  9.909146e-01
  9.577953e-01
  8.200648e-01
  4.067367e-01
  1.077566e-01
  3.421477e-02
  1.860997e-02
  1.499735e-02
  1.478403e-02
  1.713061e-02
  2.237392e-02
  2.957218e-02
  3.580486e-02
  3.893524e-02
  3.962054e-02
  3.908271e-02
  3.696194e-02
  3.305089e-02
  2.847443e-02
  2.719326e-02
  4.128352e-02
  1.109914e-01
  3.351152e-01
  7.002529e-01
  8.955852e-01
  9.565674e-01
  9.625877e-01
  9.379679e-01
  8.893589e-01
  8.289509e-01
  7.633079e-01
  6.534238e-01
  4.545102e-01
  2.484210e-01
  1.111743e-01
  4.825377e-02
  2.945885e-02
  2.810945e-02
  4.063254e-02
  7.929116e-02
  1.419770e-01
  1.746221e-01
  1.415130e-01
  8.150061e-02
  4.955633e-02
  4.308367e-02
  6.667704e-02
  1.870683e-01
  5.445375e-01
  7.993310e-01
  8.654450e-01
  8.239917e-01
  6.328563e-01
  2.718890e-01
  8.304038e-02
  3.628330e-02
  3.305363e-02
  6.635249e-02
  2.371350e-01
  7.765326e-01
  9.618704e-01
  9.964387e-01
  9.960087e-01
  9.840790e-01
  9.506787e-01
  8.499291e-01
  5.704436e-01
  1.992321e-01
  6.123761e-02
  2.901011e-02
  2.180623e-02
  2.003208e-02
  2.079035e-02
  2.509436e-02
  3.415296e-02
  4.697635e-02
  6.120912e-02
  7.506391e-02
  8.663712e-02
  9.253945e-02
  8.881585e-02
  7.448066e-02
  5.357074e-02
  3.539935e-02
  2.971731e-02
  4.536539e-02
  1.180516e-01
  3.327194e-01
  6.841939e-01
  8.861837e-01
  9.560581e-01
  9.734768e-01
  9.724905e-01
  9.650150e-01
  9.530289e-01
  9.257883e-01
  8.555356e-01
  6.828801e-01
  3.486961e-01
  1.164951e-01
  4.935706e-02
  4.516660e-02
  9.035156e-02
  2.528186e-01
  5.071075e-01
  6.118504e-01
  4.749559e-01
  2.125210e-01
  8.351737e-02
  5.554318e-02
  9.696965e-02
  3.232755e-01
  7.923488e-01
  9.521576e-01
  9.825608e-01
  9.676582e-01
  8.749496e-01
  5.493960e-01
  1.521269e-01
  4.810763e-02
  3.571238e-02
  7.123388e-02
  2.545637e-01
  6.475366e-01
  8.976783e-01
  9.567899e-01
  9.522423e-01
  9.069150e-01
  7.914190e-01
  5.448109e-01
  2.453083e-01
  9.843585e-02
  6.145358e-02
  5.739136e-02
  5.884190e-02
  6.171294e-02
  7.017618e-02
  9.211647e-02
  1.330260e-01
  1.851543e-01
  2.380546e-01
  2.885967e-01
  3.316143e-01
  3.530677e-01
  3.355776e-01
  2.715683e-01
  1.716905e-01
  7.902211e-02
  3.840644e-02
  2.908201e-02
  4.369959e-02
  1.102860e-01
  3.055506e-01
  6.514153e-01
  8.723679e-01
  9.554158e-01
  9.820172e-01
  9.902760e-01
  9.922072e-01
  9.888829e-01
  9.733594e-01
  9.121695e-01
  6.935784e-01
  2.561999e-01
  8.732806e-02
  7.341219e-02
  1.839839e-01
  5.824753e-01
  8.633532e-01
  9.211298e-01
  8.215895e-01
  4.423684e-01
  1.383461e-01
  7.003555e-02
  1.237897e-01
  4.339228e-01
  8.735580e-01
  9.830410e-01
  9.999000e-01
  9.954187e-01
  9.486725e-01
  7.314549e-01
  2.163433e-01
  5.821640e-02
  3.450303e-02
  6.024374e-02
  1.992379e-01
  3.237594e-01
  6.279947e-01
  7.538187e-01
  7.368159e-01
  5.990741e-01
  3.661192e-01
  1.940858e-01
  1.223460e-01
  1.366604e-01
  1.897140e-01
  2.324676e-01
  2.571594e-01
  2.772286e-01
  3.166453e-01
  4.068009e-01
  5.541461e-01
  6.902780e-01
  7.730139e-01
  8.192956e-01
  8.461914e-01
  8.576541e-01
  8.458032e-01
  7.775759e-01
  5.602901e-01
  2.227219e-01
  7.201471e-02
  3.212606e-02
  2.510229e-02
  3.837302e-02
  9.642296e-02
  2.698791e-01
  6.060160e-01
  8.513889e-01
  9.506630e-01
  9.848348e-01
  9.965404e-01
  9.999000e-01
  9.992525e-01
  9.760454e-01
  8.502593e-01
  4.041383e-01
  1.291217e-01
  9.614405e-02
  2.435941e-01
  7.277811e-01
  9.472608e-01
  9.814279e-01
  9.022764e-01
  5.449894e-01
  1.634434e-01
  7.491845e-02
  1.331147e-01
  4.766478e-01
  8.912019e-01
  9.863081e-01
  9.999000e-01
  9.985394e-01
  9.663967e-01
  7.951528e-01
  2.512611e-01
  6.193065e-02
  2.965264e-02
  4.047006e-02
  1.046930e-01
  1.003711e-01
  1.833004e-01
  2.302959e-01
  2.184647e-01
  1.652214e-01
  1.092281e-01
  1.030370e-01
  2.042683e-01
  4.381815e-01
  6.686088e-01
  7.718104e-01
  8.053794e-01
  8.177484e-01
  8.320233e-01
  8.596222e-01
  8.983726e-01
  9.324827e-01
  9.545921e-01
  9.682697e-01
  9.771381e-01
  9.820388e-01
  9.803001e-01
  9.570586e-01
  8.407521e-01
  4.511608e-01
  1.272696e-01
  4.267973e-02
  2.307926e-02
  2.031151e-02
  3.216123e-02
  8.133549e-02
  2.300025e-01
  5.419454e-01
  8.157785e-01
  9.371923e-01
  9.808472e-01
  9.962678e-01
  9.999000e-01
  9.838117e-01
  8.768069e-01
  4.513316e-01
  1.424077e-01
  9.371675e-02
  2.097551e-01
  6.315317e-01
  8.862308e-01
  9.273866e-01
  8.140804e-01
  4.197599e-01
  1.284974e-01
  6.466959e-02
  1.214988e-01
  4.466919e-01
  8.818888e-01
  9.836672e-01
  9.997991e-01
  9.977278e-01
  9.687380e-01
  8.115190e-01
  2.653053e-01
  6.079437e-02
  2.364420e-02
  2.505404e-02
  4.549661e-02
  3.639382e-02
  5.297708e-02
  6.205157e-02
  5.974624e-02
  5.285430e-02
  6.156014e-02
  1.491848e-01
  4.832785e-01
  8.107029e-01
  9.285859e-01
  9.611656e-01
  9.679691e-01
  9.678401e-01
  9.674439e-01
  9.697244e-01
  9.748798e-01
  9.808755e-01
  9.865243e-01
  9.918401e-01
  9.966066e-01
  9.999000e-01
  9.999000e-01
  9.901483e-01
  9.137621e-01
  5.795594e-01
  1.626375e-01
  5.009060e-02
  2.431685e-02
  1.695005e-02
  1.635092e-02
  2.645813e-02
  6.624036e-02
  1.847948e-01
  4.478796e-01
  7.475943e-01
  8.970122e-01
  9.540000e-01
  9.675869e-01
  9.396678e-01
  7.881191e-01
  3.488296e-01
  1.139029e-01
  7.051852e-02
  1.177650e-01
  3.133514e-01
  5.795535e-01
  6.467109e-01
  4.731065e-01
  1.983839e-01
  7.446149e-02
  4.913665e-02
  9.944721e-02
  3.742785e-01
  8.556130e-01
  9.774772e-01
  9.979544e-01
  9.958981e-01
  9.679062e-01
  8.189574e-01
  2.835501e-01
  6.093589e-02
  1.852627e-02
  1.586670e-02
  2.297233e-02
  1.967167e-02
  2.484158e-02
  2.794551e-02
  2.949428e-02
  3.495397e-02
  6.761162e-02
  2.291042e-01
  7.227731e-01
  9.415809e-01
  9.912545e-01
  9.989503e-01
  9.971135e-01
  9.924338e-01
  9.868049e-01
  9.811299e-01
  9.758439e-01
  9.720909e-01
  9.719165e-01
  9.757152e-01
  9.815192e-01
  9.862868e-01
  9.859561e-01
  9.676231e-01
  8.672033e-01
  4.970388e-01
  1.412245e-01
  4.705449e-02
  2.456356e-02
  1.709454e-02
  1.377164e-02
  1.404609e-02
  2.232818e-02
  5.201180e-02
  1.344596e-01
  3.143478e-01
  5.795913e-01
  7.476723e-01
  7.916418e-01
  7.266923e-01
  4.839831e-01
  1.824738e-01
  7.242505e-02
  4.969970e-02
  6.065065e-02
  1.071431e-01
  1.755493e-01
  1.963634e-01
  1.459450e-01
  7.804534e-02
  4.433625e-02
  3.849067e-02
  7.810806e-02
  2.939979e-01
  8.086051e-01
  9.655219e-01
  9.944925e-01
  9.940249e-01
  9.689748e-01
  8.388286e-01
  3.465952e-01
  7.418193e-02
  1.712107e-02
  1.059111e-02
  1.414454e-02
  1.476808e-02
  1.828883e-02
  2.109338e-02
  2.430807e-02
  3.332879e-02
  7.373001e-02
  2.608957e-01
  7.808145e-01
  9.641602e-01
  9.989266e-01
  9.999000e-01
  9.930941e-01
  9.803960e-01
  9.621780e-01
  9.388149e-01
  9.092387e-01
  8.793162e-01
  8.633587e-01
  8.664696e-01
  8.801420e-01
  8.900664e-01
  8.808430e-01
  8.244529e-01
  6.367971e-01
  2.709431e-01
  8.714928e-02
  3.791212e-02
  2.444018e-02
  1.943901e-02
  1.712530e-02
  1.634102e-02
  1.782135e-02
  2.473972e-02
  4.448701e-02
  8.941396e-02
  1.651620e-01
  2.356823e-01
  2.631982e-01
  2.312213e-01
  1.496191e-01
  7.490112e-02
  4.537405e-02
  3.812418e-02
  4.027145e-02
  5.008405e-02
  6.440867e-02
  7.104643e-02
  6.336332e-02
  4.913573e-02
  3.818602e-02
  3.513784e-02
  6.105041e-02
  2.157275e-01
  7.074099e-01
  9.360208e-01
  9.866291e-01
  9.918205e-01
  9.737487e-01
  8.803989e-01
  5.034243e-01
  1.261713e-01
  2.777210e-02
  1.069718e-02
  1.112445e-02
  1.659801e-02
  1.777968e-02
  1.968172e-02
  2.282893e-02
  3.120263e-02
  6.462657e-02
  2.139340e-01
  6.758327e-01
  9.115971e-01
  9.660440e-01
  9.666951e-01
  9.439830e-01
  8.947942e-01
  8.198131e-01
  7.266605e-01
  6.074151e-01
  4.853196e-01
  4.175468e-01
  4.154681e-01
  4.497735e-01
  4.738421e-01
  4.449818e-01
  3.513317e-01
  2.207550e-01
  1.022510e-01
  4.917980e-02
  3.250362e-02
  2.883703e-02
  3.158375e-02
  3.825037e-02
  4.482619e-02
  4.964328e-02
  5.405155e-02
  6.038279e-02
  7.047104e-02
  8.286416e-02
  8.911951e-02
  8.442733e-02
  7.156035e-02
  5.419714e-02
  4.016645e-02
  3.414441e-02
  3.277453e-02
  3.417246e-02
  3.938435e-02
  5.117157e-02
  6.858151e-02
  8.032418e-02
  7.775166e-02
  6.246971e-02
  4.566810e-02
  5.053819e-02
  1.375346e-01
  4.925861e-01
  8.535191e-01
  9.629619e-01
  9.855182e-01
  9.789691e-01
  9.283341e-01
  7.156662e-01
  2.768856e-01
  8.079732e-02
  2.911961e-02
  1.773480e-02
  3.791499e-02
  2.588567e-02
  2.143296e-02
  2.171153e-02
  2.675376e-02
  4.518030e-02
  1.176618e-01
  3.613431e-01
  6.678769e-01
  7.855672e-01
  7.863612e-01
  7.083957e-01
  5.354017e-01
  3.342837e-01
  2.127524e-01
  1.474183e-01
  1.105388e-01
  9.727328e-02
  1.026359e-01
  1.167369e-01
  1.265010e-01
  1.212539e-01
  1.001697e-01
  7.211057e-02
  4.827866e-02
  3.721979e-02
  3.767681e-02
  5.376871e-02
  9.263613e-02
  1.495041e-01
  1.977166e-01
  2.265648e-01
  2.415808e-01
  2.478563e-01
  2.433770e-01
  2.182654e-01
  1.637259e-01
  9.791013e-02
  5.569702e-02
  3.776655e-02
  3.161056e-02
  3.011000e-02
  3.071632e-02
  3.458978e-02
  4.948408e-02
  9.606178e-02
  1.837337e-01
  2.536835e-01
  2.590712e-01
  1.971456e-01
  1.068458e-01
  5.858917e-02
  8.002779e-02
  2.477151e-01
  6.438960e-01
  8.841088e-01
  9.599572e-01
  9.760945e-01
  9.598569e-01
  8.746866e-01
  6.116151e-01
  2.814077e-01
  1.251265e-01
  6.344696e-02
  1.424657e-01
  6.673289e-02
  3.282448e-02
  2.236033e-02
  2.223286e-02
  2.955292e-02
  5.238939e-02
  1.134411e-01
  2.021180e-01
  2.517747e-01
  2.443812e-01
  1.962189e-01
  1.307271e-01
  7.575799e-02
  4.610273e-02
  3.342618e-02
  3.124639e-02
  3.784697e-02
  4.951426e-02
  5.879446e-02
  5.980575e-02
  5.445732e-02
  4.770904e-02
  4.150856e-02
  3.765719e-02
  4.073620e-02
  6.546560e-02
  1.561778e-01
  3.466540e-01
  5.814744e-01
  7.231282e-01
  7.784782e-01
  7.972506e-01
  8.005372e-01
  7.866176e-01
  7.285428e-01
  5.649129e-01
  3.034962e-01
  1.199472e-01
  5.053403e-02
  3.261418e-02
  2.931557e-02
  3.104164e-02
  4.215232e-02
  9.255032e-02
  2.778469e-01
  5.956298e-01
  7.652907e-01
  7.784320e-01
  6.453747e-01
  3.335869e-01
  1.115867e-01
  5.953469e-02
  1.034540e-01
  2.961002e-01
  6.424207e-01
  8.591666e-01
  9.428406e-01
  9.652311e-01
  9.496534e-01
  8.768947e-01
  7.178123e-01
  4.775382e-01
  2.692793e-01
  5.033016e-01
  2.254799e-01
  7.838892e-02
  3.085972e-02
  2.011618e-02
  2.139195e-02
  2.861095e-02
  4.219594e-02
  5.848691e-02
  6.608316e-02
  6.118735e-02
  4.794791e-02
  3.269102e-02
  2.123243e-02
  1.655083e-02
  1.949377e-02
  3.403594e-02
  6.519598e-02
  1.022250e-01
  1.179710e-01
  9.756189e-02
  6.486804e-02
  4.660631e-02
  3.956778e-02
  3.978441e-02
  5.595908e-02
  1.378772e-01
  4.330764e-01
  7.675357e-01
  9.034795e-01
  9.481218e-01
  9.617789e-01
  9.658291e-01
  9.664590e-01
  9.629882e-01
  9.465405e-01
  8.863975e-01
  6.979913e-01
  3.113475e-01
  9.458039e-02
  4.069541e-02
  3.065416e-02
  3.330280e-02
  5.711169e-02
  1.752927e-01
  5.878725e-01
  8.780645e-01
  9.590469e-01
  9.641773e-01
  9.051541e-01
  6.651232e-01
  2.125507e-01
  6.687169e-02
  4.945190e-02
  9.831471e-02
  2.525897e-01
  5.482075e-01
  8.028298e-01
  9.225155e-01
  9.614336e-01
  9.602264e-01
  9.300637e-01
  8.647688e-01
  7.435086e-01
  8.446936e-01
  5.793935e-01
  2.163147e-01
  6.598362e-02
  2.754392e-02
  2.193784e-02
  2.481429e-02
  2.881036e-02
  3.089055e-02
  2.972745e-02
  2.584526e-02
  2.066958e-02
  1.591461e-02
  1.346420e-02
  1.627866e-02
  3.323263e-02
  9.096229e-02
  2.203588e-01
  3.601400e-01
  4.010242e-01
  2.932338e-01
  1.368622e-01
  6.562969e-02
  4.500801e-02
  4.493883e-02
  7.532644e-02
  2.292816e-01
  7.020726e-01
  9.295284e-01
  9.843172e-01
  9.949878e-01
  9.965823e-01
  9.967070e-01
  9.966978e-01
  9.963280e-01
  9.932969e-01
  9.757327e-01
  8.910966e-01
  5.760175e-01
  1.640892e-01
  5.363702e-02
  3.315499e-02
  3.578951e-02
  7.033563e-02
  2.434634e-01
  7.582584e-01
  9.577015e-01
  9.989558e-01
  9.999000e-01
  9.711461e-01
  8.099672e-01
  2.926723e-01
  7.998611e-02
  3.555852e-02
  3.717897e-02
  7.413957e-02
  1.842367e-01
  4.336337e-01
  7.496464e-01
  9.125011e-01
  9.669303e-01
  9.787552e-01
  9.715062e-01
  9.412552e-01
  9.528230e-01
  8.324770e-01
  4.972360e-01
  1.834221e-01
  7.757042e-02
  5.452942e-02
  5.246997e-02
  4.968538e-02
  4.049698e-02
  2.993387e-02
  2.238116e-02
  1.737860e-02
  1.427896e-02
  1.442003e-02
  2.496441e-02
  7.726593e-02
  2.764977e-01
  6.458745e-01
  8.332942e-01
  8.554687e-01
  7.095332e-01
  3.083214e-01
  1.032432e-01
  5.255004e-02
  4.791490e-02
  8.314766e-02
  2.636524e-01
  7.703817e-01
  9.583514e-01
  9.958759e-01
  9.999000e-01
  9.999000e-01
  9.999000e-01
  9.999000e-01
  9.999000e-01
  9.999000e-01
  9.941907e-01
  9.438221e-01
  7.053495e-01
  2.091825e-01
  6.256536e-02
  3.501651e-02
  3.668927e-02
  7.267981e-02
  2.532825e-01
  7.749950e-01
  9.632265e-01
  9.999000e-01
  9.999000e-01
  9.758153e-01
  8.256211e-01
  3.070492e-01
  8.296363e-02
  3.277155e-02
  2.285235e-02
  2.713667e-02
  5.356628e-02
  1.412211e-01
  3.778956e-01
  7.310365e-01
  9.130759e-01
  9.726088e-01
  9.881449e-01
  9.845713e-01
  9.654777e-01
  9.205839e-01
  7.764440e-01
  4.988306e-01
  2.998836e-01
  2.362367e-01
  2.166039e-01
  1.823376e-01
  1.179027e-01
  5.970115e-02
  3.089451e-02
  1.955070e-02
  1.519125e-02
  1.728267e-02
  4.149445e-02
  1.639801e-01
  5.780999e-01
  8.858701e-01
  9.723362e-01
  9.740183e-01
  8.692276e-01
  4.467006e-01
  1.326097e-01
  5.620246e-02
  4.604814e-02
  7.262756e-02
  2.143144e-01
  6.644816e-01
  9.098626e-01
  9.736276e-01
  9.886787e-01
  9.930835e-01
  9.951461e-01
  9.966671e-01
  9.979560e-01
  9.978550e-01
  9.879376e-01
  9.266404e-01
  6.633804e-01
  1.948618e-01
  6.068600e-02
  3.543488e-02
  3.620099e-02
  6.342292e-02
  1.997256e-01
  6.503265e-01
  9.063361e-01
  9.708186e-01
  9.754093e-01
  9.323402e-01
  7.307393e-01
  2.478536e-01
  7.196869e-02
  3.160448e-02
  2.104332e-02
  1.797440e-02
  2.184795e-02
  4.478426e-02
  1.281876e-01
  3.653558e-01
  7.182497e-01
  8.982165e-01
  9.584878e-01
  9.734310e-01
  8.850073e-01
  8.859615e-01
  8.641588e-01
  8.169278e-01
  7.789950e-01
  7.678841e-01
  7.501602e-01
  6.600867e-01
  4.242206e-01
  1.733737e-01
  5.897348e-02
  2.566110e-02
  1.679989e-02
  2.146131e-02
  6.714997e-02
  2.854293e-01
  7.775015e-01
  9.581985e-01
  9.964972e-01
  9.852520e-01
  8.757081e-01
  4.363752e-01
  1.250287e-01
  5.181435e-02
  4.060328e-02
  5.279397e-02
  1.197479e-01
  3.613390e-01
  6.952035e-01
  8.542139e-01
  9.195628e-01
  9.478272e-01
  9.605981e-01
  9.670807e-01
  9.696661e-01
  9.645062e-01
  9.322775e-01
  8.039158e-01
  4.420570e-01
  1.312203e-01
  5.137521e-02
  3.784005e-02
  3.983989e-02
  5.419326e-02
  1.184711e-01
  3.519300e-01
  6.760867e-01
  8.129133e-01
  8.272785e-01
  7.341605e-01
  4.455211e-01
  1.491312e-01
  5.755637e-02
  3.349913e-02
  2.421405e-02
  1.894367e-02
  1.687970e-02
  2.113702e-02
  4.377673e-02
  1.212137e-01
  3.214123e-01
  6.211178e-01
  7.947973e-01
  8.616675e-01
  5.145380e-01
  6.084253e-01
  7.193296e-01
  8.417025e-01
  9.153021e-01
  9.455344e-01
  9.531192e-01
  9.263880e-01
  7.975697e-01
  4.274306e-01
  1.185474e-01
  3.652603e-02
  1.917845e-02
  2.852148e-02
  1.095702e-01
  4.583043e-01
  8.698734e-01
  9.767646e-01
  9.915624e-01
  9.584011e-01
  7.890680e-01
  3.114994e-01
  9.094418e-02
  4.317661e-02
  3.582756e-02
  3.911350e-02
  5.786895e-02
  1.217366e-01
  2.532916e-01
  4.354355e-01
  6.204403e-01
  7.303487e-01
  7.815870e-01
  8.049942e-01
  8.108182e-01
  7.883461e-01
  6.926373e-01
  4.500429e-01
  1.877687e-01
  7.341172e-02
  5.068560e-02
  5.931220e-02
  7.224781e-02
  7.874042e-02
  8.836808e-02
  1.355422e-01
  2.300291e-01
  3.045008e-01
  3.182520e-01
  2.626946e-01
  1.646044e-01
  9.420686e-02
  6.977249e-02
  5.524177e-02
  3.941158e-02
  2.669632e-02
  1.976293e-02
  1.794021e-02
  2.255830e-02
  4.152090e-02
  9.245762e-02
  1.881237e-01
  3.010335e-01
  4.139504e-01
  1.229677e-01
  1.669039e-01
  3.077545e-01
  6.484524e-01
  8.972624e-01
  9.744601e-01
  9.951904e-01
  9.905510e-01
  9.285783e-01
  6.539418e-01
  1.808016e-01
  4.711479e-02
  2.220372e-02
  4.130020e-02
  1.762736e-01
  6.463599e-01
  9.199289e-01
  9.783075e-01
  9.692092e-01
  8.792467e-01
  5.706745e-01
  1.762563e-01
  5.936999e-02
  3.814633e-02
  3.611378e-02
  3.613232e-02
  3.793373e-02
  4.767630e-02
  7.127153e-02
  1.101495e-01
  1.594210e-01
  2.028025e-01
  2.351807e-01
  2.572214e-01
  2.656925e-01
  2.514545e-01
  2.046358e-01
  1.305198e-01
  7.178641e-02
  5.748648e-02
  9.132233e-02
  1.723485e-01
  2.400808e-01
  2.453149e-01
  1.879010e-01
  1.163300e-01
  9.031709e-02
  9.185745e-02
  9.535804e-02
  9.788806e-02
  1.179596e-01
  1.656293e-01
  1.969578e-01
  1.737050e-01
  1.101338e-01
  5.596913e-02
  2.984871e-02
  2.108488e-02
  1.970896e-02
  2.338906e-02
  3.401194e-02
  5.319890e-02
  7.655809e-02
  9.977227e-02
  3.048182e-02
  4.169143e-02
  1.059911e-01
  3.594446e-01
  7.966644e-01
  9.580237e-01
  9.974462e-01
  9.980088e-01
  9.448702e-01
  6.907291e-01
  1.921741e-01
  4.906677e-02
  2.701904e-02
  6.851260e-02
  2.870391e-01
  7.754293e-01
  9.451428e-01
  9.676881e-01
  9.129449e-01
  6.890632e-01
  2.789267e-01
  8.612558e-02
  4.641570e-02
  4.759678e-02
  5.201773e-02
  4.840333e-02
  4.009776e-02
  3.409143e-02
  3.284135e-02
  3.598247e-02
  4.259744e-02
  5.031302e-02
  5.769414e-02
  6.382799e-02
  6.716672e-02
  6.560275e-02
  5.796969e-02
  4.750821e-02
  4.724310e-02
  8.765949e-02
  2.553655e-01
  5.706741e-01
  7.487075e-01
  7.526970e-01
  5.857529e-01
  2.717281e-01
  9.737914e-02
  5.411327e-02
  5.531769e-02
  9.936915e-02
  2.591434e-01
  5.206535e-01
  6.628597e-01
  6.129621e-01
  3.897509e-01
  1.653918e-01
  5.926800e-02
  2.910947e-02
  2.209098e-02
  2.147837e-02
  2.334551e-02
  2.638038e-02
  2.890426e-02
  2.976855e-02
  1.742347e-02
  1.899841e-02
  4.643120e-02
  1.791934e-01
  5.851679e-01
  8.773585e-01
  9.609807e-01
  9.618919e-01
  8.721369e-01
  5.371383e-01
  1.446662e-01
  4.309761e-02
  4.148108e-02
  1.383339e-01
  4.960737e-01
  8.649779e-01
  9.559955e-01
  9.389302e-01
  7.851161e-01
  3.788168e-01
  1.179406e-01
  5.555885e-02
  7.032755e-02
  1.108337e-01
  1.335504e-01
  1.122424e-01
  7.069511e-02
  4.206357e-02
  2.983854e-02
  2.537651e-02
  2.465277e-02
  2.628255e-02
  2.935418e-02
  3.230168e-02
  3.345635e-02
  3.265611e-02
  3.140600e-02
  3.336247e-02
  5.312119e-02
  1.568625e-01
  5.422789e-01
  8.648188e-01
  9.559190e-01
  9.566045e-01
  8.693289e-01
  5.560886e-01
  1.637740e-01
  6.106795e-02
  6.372559e-02
  1.756817e-01
  5.703444e-01
  8.547364e-01
  9.324189e-01
  9.159918e-01
  7.884976e-01
  4.399920e-01
  1.290962e-01
  4.453434e-02
  2.711223e-02
  2.479702e-02
  2.600337e-02
  2.696903e-02
  2.554087e-02
  2.158946e-02
  2.576666e-02
  1.965138e-02
  2.828933e-02
  8.090831e-02
  2.697539e-01
  6.029842e-01
  7.748938e-01
  7.749813e-01
  5.995806e-01
  2.586213e-01
  7.943849e-02
  4.338783e-02
  9.051695e-02
  3.070281e-01
  7.357274e-01
  9.268527e-01
  9.557172e-01
  8.813100e-01
  5.627171e-01
  1.761668e-01
  6.319498e-02
  7.764808e-02
  1.980672e-01
  3.755375e-01
  4.618493e-01
  3.710170e-01
  1.919329e-01
  7.525259e-02
  3.771187e-02
  2.772953e-02
  2.698912e-02
  3.211065e-02
  4.170771e-02
  4.968276e-02
  4.874682e-02
  4.047859e-02
  3.323405e-02
  3.429285e-02
  6.216930e-02
  2.097490e-01
  7.063092e-01
  9.472198e-01
  9.998464e-01
  9.999000e-01
  9.494451e-01
  7.179460e-01
  2.182026e-01
  7.272363e-02
  7.948986e-02