# vtk DataFile Version 2.0
time_10.vtk
ASCII
DATASET STRUCTURED_GRID
DIMENSIONS    64    64     1
POINTS    4096 float
  0.000000e+00   0.000000e+00   0.000000e+00
  0.000000e+00   1.000000e+00   0.000000e+00
  0.000000e+00   2.000000e+00   0.000000e+00
  0.000000e+00   3.000000e+00   0.000000e+00
  0.000000e+00   4.000000e+00   0.000000e+00
  0.000000e+00   5.000000e+00   0.000000e+00
  0.000000e+00   6.000000e+00   0.000000e+00
  0.000000e+00   7.000000e+00   0.000000e+00
  0.000000e+00   8.000000e+00   0.000000e+00
  0.000000e+00   9.000000e+00   0.000000e+00
  0.000000e+00   1.000000e+01   0.000000e+00
  0.000000e+00   1.100000e+01   0.000000e+00
  0.000000e+00   1.200000e+01   0.000000e+00
  0.000000e+00   1.300000e+01   0.000000e+00
  0.000000e+00   1.400000e+01   0.000000e+00
  0.000000e+00   1.500000e+01   0.000000e+00
  0.000000e+00   1.600000e+01   0.000000e+00
  0.000000e+00   1.700000e+01   0.000000e+00
  0.000000e+00   1.800000e+01   0.000000e+00
  0.000000e+00   1.900000e+01   0.000000e+00
  0.000000e+00   2.000000e+01   0.000000e+00
  0.000000e+00   2.100000e+01   0.000000e+00
  0.000000e+00   2.200000e+01   0.000000e+00
  0.000000e+00   2.300000e+01   0.000000e+00
  0.000000e+00   2.400000e+01   0.000000e+00
  0.000000e+00   2.500000e+01   0.000000e+00
  0.000000e+00   2.600000e+01   0.000000e+00
  0.000000e+00   2.700000e+01   0.000000e+00
  0.000000e+00   2.800000e+01   0.000000e+00
  0.000000e+00   2.900000e+01   0.000000e+00
  0.000000e+00   3.000000e+01   0.000000e+00
  0.000000e+00   3.100000e+01   0.000000e+00
  0.000000e+00   3.200000e+01   0.000000e+00
  0.000000e+00   3.300000e+01   0.000000e+00
  0.000000e+00   3.400000e+01   0.000000e+00
  0.000000e+00   3.500000e+01   0.000000e+00
  0.000000e+00   3.600000e+01   0.000000e+00
  0.000000e+00   3.700000e+01   0.000000e+00
  0.000000e+00   3.800000e+01   0.000000e+00
  0.000000e+00   3.900000e+01   0.000000e+00
  0.000000e+00   4.000000e+01   0.000000e+00
  0.000000e+00   4.100000e+01   0.000000e+00
  0.000000e+00   4.200000e+01   0.000000e+00
  0.000000e+00   4.300000e+01   0.000000e+00
  0.000000e+00   4.400000e+01   0.000000e+00
  0.000000e+00   4.500000e+01   0.000000e+00
  0.000000e+00   4.600000e+01   0.000000e+00
  0.000000e+00   4.700000e+01   0.000000e+00
  0.000000e+00   4.800000e+01   0.000000e+00
  0.000000e+00   4.900000e+01   0.000000e+00
  0.000000e+00   5.000000e+01   0.000000e+00
  0.000000e+00   5.100000e+01   0.000000e+00
  0.000000e+00   5.200000e+01   0.000000e+00
  0.000000e+00   5.300000e+01   0.000000e+00
  0.000000e+00   5.400000e+01   0.000000e+00
  0.000000e+00   5.500000e+01   0.000000e+00
  0.000000e+00   5.600000e+01   0.000000e+00
  0.000000e+00   5.700000e+01   0.000000e+00
  0.000000e+00   5.800000e+01   0.000000e+00
  0.000000e+00   5.900000e+01   0.000000e+00
  0.000000e+00   6.000000e+01   0.000000e+00
  0.000000e+00   6.100000e+01   0.000000e+00
  0.000000e+00   6.200000e+01   0.000000e+00
  0.000000e+00   6.300000e+01   0.000000e+00
  1.000000e+00   0.000000e+00   0.000000e+00
  1.000000e+00   1.000000e+00   0.000000e+00
  1.000000e+00   2.000000e+00   0.000000e+00
  1.000000e+00   3.000000e+00   0.000000e+00
  1.000000e+00   4.000000e+00   0.000000e+00
  1.000000e+00   5.000000e+00   0.000000e+00
  1.000000e+00   6.000000e+00   0.000000e+00
  1.000000e+00   7.000000e+00   0.000000e+00
  1.000000e+00   8.000000e+00   0.000000e+00
  1.000000e+00   9.000000e+00   0.000000e+00
  1.000000e+00   1.000000e+01   0.000000e+00
  1.000000e+00   1.100000e+01   0.000000e+00
  1.000000e+00   1.200000e+01   0.000000e+00
  1.000000e+00   1.300000e+01   0.000000e+00
  1.000000e+00   1.400000e+01   0.000000e+00
  1.000000e+00   1.500000e+01   0.000000e+00
  1.000000e+00   1.600000e+01   0.000000e+00
  1.000000e+00   1.700000e+01   0.000000e+00
  1.000000e+00   1.800000e+01   0.000000e+00
  1.000000e+00   1.900000e+01   0.000000e+00
  1.000000e+00   2.000000e+01   0.000000e+00
  1.000000e+00   2.100000e+01   0.000000e+00
  1.000000e+00   2.200000e+01   0.000000e+00
  1.000000e+00   2.300000e+01   0.000000e+00
  1.000000e+00   2.400000e+01   0.000000e+00
  1.000000e+00   2.500000e+01   0.000000e+00
  1.000000e+00   2.600000e+01   0.000000e+00
  1.000000e+00   2.700000e+01   0.000000e+00
  1.000000e+00   2.800000e+01   0.000000e+00
  1.000000e+00   2.900000e+01   0.000000e+00
  1.000000e+00   3.000000e+01   0.000000e+00
  1.000000e+00   3.100000e+01   0.000000e+00
  1.000000e+00   3.200000e+01   0.000000e+00
  1.000000e+00   3.300000e+01   0.000000e+00
  1.000000e+00   3.400000e+01   0.000000e+00
  1.000000e+00   3.500000e+01   0.000000e+00
  1.000000e+00   3.600000e+01   0.000000e+00
  1.000000e+00   3.700000e+01   0.000000e+00
  1.000000e+00   3.800000e+01   0.000000e+00
  1.000000e+00   3.900000e+01   0.000000e+00
  1.000000e+00   4.000000e+01   0.000000e+00
  1.000000e+00   4.100000e+01   0.000000e+00
  1.000000e+00   4.200000e+01   0.000000e+00
  1.000000e+00   4.300000e+01   0.000000e+00
  1.000000e+00   4.400000e+01   0.000000e+00
  1.000000e+00   4.500000e+01   0.000000e+00
  1.000000e+00   4.600000e+01   0.000000e+00
  1.000000e+00   4.700000e+01   0.000000e+00
  1.000000e+00   4.800000e+01   0.000000e+00
  1.000000e+00   4.900000e+01   0.000000e+00
  1.000000e+00   5.000000e+01   0.000000e+00
  1.000000e+00   5.100000e+01   0.000000e+00
  1.000000e+00   5.200000e+01   0.000000e+00
  1.000000e+00   5.300000e+01   0.000000e+00
  1.000000e+00   5.400000e+01   0.000000e+00
  1.000000e+00   5.500000e+01   0.000000e+00
  1.000000e+00   5.600000e+01   0.000000e+00
  1.000000e+00   5.700000e+01   0.000000e+00
  1.000000e+00   5.800000e+01   0.000000e+00
  1.000000e+00   5.900000e+01   0.000000e+00
  1.000000e+00   6.000000e+01   0.000000e+00
  1.000000e+00   6.100000e+01   0.000000e+00
  1.000000e+00   6.200000e+01   0.000000e+00
  1.000000e+00   6.300000e+01   0.000000e+00
  2.000000e+00   0.000000e+00   0.000000e+00
  2.000000e+00   1.000000e+00   0.000000e+00
  2.000000e+00   2.000000e+00   0.000000e+00
  2.000000e+00   3.000000e+00   0.000000e+00
  2.000000e+00   4.000000e+00   0.000000e+00
  2.000000e+00   5.000000e+00   0.000000e+00
  2.000000e+00   6.000000e+00   0.000000e+00
  2.000000e+00   7.000000e+00   0.000000e+00
  2.000000e+00   8.000000e+00   0.000000e+00
  2.000000e+00   9.000000e+00   0.000000e+00
  2.000000e+00   1.000000e+01   0.000000e+00
  2.000000e+00   1.100000e+01   0.000000e+00
  2.000000e+00   1.200000e+01   0.000000e+00
  2.000000e+00   1.300000e+01   0.000000e+00
  2.000000e+00   1.400000e+01   0.000000e+00
  2.000000e+00   1.500000e+01   0.000000e+00
  2.000000e+00   1.600000e+01   0.000000e+00
  2.000000e+00   1.700000e+01   0.000000e+00
  2.000000e+00   1.800000e+01   0.000000e+00
  2.000000e+00   1.900000e+01   0.000000e+00
  2.000000e+00   2.000000e+01   0.000000e+00
  2.000000e+00   2.100000e+01   0.000000e+00
  2.000000e+00   2.200000e+01   0.000000e+00
  2.000000e+00   2.300000e+01   0.000000e+00
  2.000000e+00   2.400000e+01   0.000000e+00
  2.000000e+00   2.500000e+01   0.000000e+00
  2.000000e+00   2.600000e+01   0.000000e+00
  2.000000e+00   2.700000e+01   0.000000e+00
  2.000000e+00   2.800000e+01   0.000000e+00
  2.000000e+00   2.900000e+01   0.000000e+00
  2.000000e+00   3.000000e+01   0.000000e+00
  2.000000e+00   3.100000e+01   0.000000e+00
  2.000000e+00   3.200000e+01   0.000000e+00
  2.000000e+00   3.300000e+01   0.000000e+00
  2.000000e+00   3.400000e+01   0.000000e+00
  2.000000e+00   3.500000e+01   0.000000e+00
  2.000000e+00   3.600000e+01   0.000000e+00
  2.000000e+00   3.700000e+01   0.000000e+00
  2.000000e+00   3.800000e+01   0.000000e+00
  2.000000e+00   3.900000e+01   0.000000e+00
  2.000000e+00   4.000000e+01   0.000000e+00
  2.000000e+00   4.100000e+01   0.000000e+00
  2.000000e+00   4.200000e+01   0.000000e+00
  2.000000e+00   4.300000e+01   0.000000e+00
  2.000000e+00   4.400000e+01   0.000000e+00
  2.000000e+00   4.500000e+01   0.000000e+00
  2.000000e+00   4.600000e+01   0.000000e+00
  2.000000e+00   4.700000e+01   0.000000e+00
  2.000000e+00   4.800000e+01   0.000000e+00
  2.000000e+00   4.900000e+01   0.000000e+00
  2.000000e+00   5.000000e+01   0.000000e+00
  2.000000e+00   5.100000e+01   0.000000e+00
  2.000000e+00   5.200000e+01   0.000000e+00
  2.000000e+00   5.300000e+01   0.000000e+00
  2.000000e+00   5.400000e+01   0.000000e+00
  2.000000e+00   5.500000e+01   0.000000e+00
  2.000000e+00   5.600000e+01   0.000000e+00
  2.000000e+00   5.700000e+01   0.000000e+00
  2.000000e+00   5.800000e+01   0.000000e+00
  2.000000e+00   5.900000e+01   0.000000e+00
  2.000000e+00   6.000000e+01   0.000000e+00
  2.000000e+00   6.100000e+01   0.000000e+00
  2.000000e+00   6.200000e+01   0.000000e+00
  2.000000e+00   6.300000e+01   0.000000e+00
  3.000000e+00   0.000000e+00   0.000000e+00
  3.000000e+00   1.000000e+00   0.000000e+00
  3.000000e+00   2.000000e+00   0.000000e+00
  3.000000e+00   3.000000e+00   0.000000e+00
  3.000000e+00   4.000000e+00   0.000000e+00
  3.000000e+00   5.000000e+00   0.000000e+00
  3.000000e+00   6.000000e+00   0.000000e+00
  3.000000e+00   7.000000e+00   0.000000e+00
  3.000000e+00   8.000000e+00   0.000000e+00
  3.000000e+00   9.000000e+00   0.000000e+00
  3.000000e+00   1.000000e+01   0.000000e+00
  3.000000e+00   1.100000e+01   0.000000e+00
  3.000000e+00   1.200000e+01   0.000000e+00
  3.000000e+00   1.300000e+01   0.000000e+00
  3.000000e+00   1.400000e+01   0.000000e+00
  3.000000e+00   1.500000e+01   0.000000e+00
  3.000000e+00   1.600000e+01   0.000000e+00
  3.000000e+00   1.700000e+01   0.000000e+00
  3.000000e+00   1.800000e+01   0.000000e+00
  3.000000e+00   1.900000e+01   0.000000e+00
  3.000000e+00   2.000000e+01   0.000000e+00
  3.000000e+00   2.100000e+01   0.000000e+00
  3.000000e+00   2.200000e+01   0.000000e+00
  3.000000e+00   2.300000e+01   0.000000e+00
  3.000000e+00   2.400000e+01   0.000000e+00
  3.000000e+00   2.500000e+01   0.000000e+00
  3.000000e+00   2.600000e+01   0.000000e+00
[...]
POINT_DATA  4096
SCALARS CON float 1
LOOKUP_TABLE default
  6.125794e-01
  9.245128e-01
  9.923563e-01
  9.999000e-01
  9.999000e-01
  9.966414e-01
  9.672323e-01
  8.097068e-01
  2.991422e-01
  7.816417e-02
  2.903529e-02
  1.823690e-02
  1.564332e-02
  1.594473e-02
  1.816096e-02
  2.162173e-02
  2.552656e-02
  2.921353e-02
  3.229054e-02
  3.437326e-02
  3.472955e-02
  3.276938e-02
  2.882637e-02
  2.464747e-02
  2.436909e-02
  3.934457e-02
  1.110886e-01
  3.444648e-01
  7.163632e-01
  9.064363e-01
  9.655711e-01
  9.772053e-01
  9.672523e-01
  9.358194e-01
  8.803356e-01
  8.071448e-01
  7.027242e-01
  5.122439e-01
  2.809075e-01
  1.232947e-01
  5.442531e-02
  3.657954e-02
  3.634030e-02
  4.515058e-02
  6.516927e-02
  8.950464e-02
  9.465943e-02
  7.485288e-02
  5.077820e-02
  3.835116e-02
  3.691327e-02
  5.745275e-02
  1.497914e-01
  3.945560e-01
  6.656025e-01
  7.620043e-01
  7.094515e-01
  4.790090e-01
  1.936260e-01
  6.385005e-02
  3.002808e-02
  2.682168e-02
  4.879796e-02
  1.663818e-01
  5.420876e-01
  8.930328e-01
  9.812960e-01
  9.958971e-01
  9.937956e-01
  9.782662e-01
  9.133585e-01
  6.668484e-01
  2.084124e-01
  6.065661e-02
  2.947166e-02
  2.357427e-02
  2.443863e-02
  2.962211e-02
  3.808735e-02
  4.821275e-02
  5.925103e-02
  7.106697e-02
  8.277296e-02
  9.134228e-02
  9.201132e-02
  8.168314e-02
  6.222013e-02
  4.091761e-02
  2.798854e-02
  2.624894e-02
  4.456234e-02
  1.232960e-01
  3.549431e-01
  7.119416e-01
  9.015854e-01
  9.646118e-01
  9.809372e-01
  9.811554e-01
  9.741159e-01
  9.618845e-01
  9.379727e-01
  8.755706e-01
  7.098451e-01
  3.636018e-01
  1.180824e-01
  5.278769e-02
  4.775084e-02
  7.576702e-02
  1.608990e-01
  2.738998e-01
  2.950744e-01
  2.009084e-01
  9.287471e-02
  5.144901e-02
  4.907904e-02
  1.063705e-01
  3.581188e-01
  7.575774e-01
  9.208682e-01
  9.591415e-01
  9.388621e-01
  8.176397e-01
  4.572679e-01
  1.266395e-01
  4.060099e-02
  2.749279e-02
  4.545528e-02
  1.471483e-01
  3.213300e-01
  7.308820e-01
  9.057792e-01
  9.500731e-01
  9.450316e-01
  8.944099e-01
  7.385204e-01
  3.888514e-01
  1.328269e-01
  6.966714e-02
  6.289624e-02
  7.030558e-02
  8.882708e-02
  1.223530e-01
  1.654120e-01
  2.082278e-01
  2.492779e-01
  2.910378e-01
  3.319277e-01
  3.603762e-01
  3.570311e-01
  3.077916e-01
  2.155983e-01
  1.093395e-01
  4.827504e-02
  2.783067e-02
  2.574182e-02
  4.457615e-02
  1.204448e-01
  3.387607e-01
  6.926230e-01
  8.934626e-01
  9.640670e-01
  9.857539e-01
  9.922466e-01
  9.937043e-01
  9.910460e-01
  9.770356e-01
  9.143952e-01
  6.772650e-01
  2.256634e-01
  8.009395e-02
  6.910993e-02
  1.489594e-01
  4.385875e-01
  7.395157e-01
  7.756436e-01
  5.549975e-01
  1.931166e-01
  7.458313e-02
  6.566241e-02
  1.739917e-01
  6.053578e-01
  9.057353e-01
  9.830780e-01
  9.973644e-01
  9.899374e-01
  9.343458e-01
  6.944784e-01
  2.022798e-01
  5.216766e-02
  2.575831e-02
  3.405908e-02
  9.146979e-02
  1.273475e-01
  3.413736e-01
  6.050728e-01
  7.252033e-01
  7.141100e-01
  5.823615e-01
  3.540281e-01
  1.878224e-01
  1.550152e-01
  1.994863e-01
  2.511451e-01
  3.061392e-01
  3.926461e-01
  5.260482e-01
  6.582111e-01
  7.437224e-01
  7.928263e-01
  8.243036e-01
  8.468035e-01
  8.602856e-01
  8.577858e-01
  8.179228e-01
  6.715360e-01
  3.397999e-01
  1.064192e-01
  3.992224e-02
  2.377824e-02
  2.326571e-02
  4.113432e-02
  1.104977e-01
  3.121202e-01
  6.633731e-01
  8.800363e-01
  9.608270e-01
  9.879284e-01
  9.973419e-01
  9.999000e-01
  9.987687e-01
  9.688940e-01
  8.097435e-01
  3.080103e-01
  1.026668e-01
  8.684864e-02
  2.124814e-01
  6.459200e-01
  9.086883e-01
  9.316172e-01
  7.472145e-01
  2.661253e-01
  9.027302e-02
  7.607365e-02
  2.177459e-01
  7.251686e-01
  9.469164e-01
  9.938739e-01
  9.999000e-01
  9.973786e-01
  9.645736e-01
  7.947718e-01
  2.650362e-01
  6.171173e-02
  2.275342e-02
  2.268425e-02
  4.519566e-02
  4.436171e-02
  9.457102e-02
  1.641841e-01
  2.074417e-01
  2.050531e-01
  1.676185e-01
  1.349718e-01
  1.877098e-01
  4.122466e-01
  6.630935e-01
  7.805011e-01
  8.272536e-01
  8.595685e-01
  8.948990e-01
  9.266167e-01
  9.477898e-01
  9.608996e-01
  9.698956e-01
  9.767261e-01
  9.814230e-01
  9.820945e-01
  9.711185e-01
  9.061410e-01
  6.469859e-01
  1.957093e-01
  5.793876e-02
  2.695628e-02
  1.932832e-02
  2.035538e-02
  3.659734e-02
  9.795562e-02
  2.774549e-01
  6.143201e-01
  8.512186e-01
  9.486896e-01
  9.838371e-01
  9.962674e-01
  9.970597e-01
  9.677571e-01
  8.096597e-01
  3.104255e-01
  1.033119e-01
  8.314199e-02
  1.892816e-01
  5.702877e-01
  8.506207e-01
  8.751549e-01
  6.660778e-01
  2.295318e-01
  8.130384e-02
  7.267509e-02
  2.162982e-01
  7.300400e-01
  9.480210e-01
  9.932838e-01
  9.999000e-01
  9.974173e-01
  9.725604e-01
  8.385416e-01
  3.379534e-01
  7.495306e-02
  2.064391e-02
  1.487389e-02
  2.229147e-02
  1.923771e-02
  3.055386e-02
  4.442406e-02
  5.393902e-02
  5.700459e-02
  6.276899e-02
  1.101375e-01
  3.287653e-01
  7.497132e-01
  9.182170e-01
  9.621999e-01
  9.725989e-01
  9.763033e-01
  9.802147e-01
  9.845247e-01
  9.882923e-01
  9.915663e-01
  9.946644e-01
  9.975957e-01
  9.998174e-01
  9.999000e-01
  9.973554e-01
  9.584405e-01
  7.599468e-01
  2.438143e-01
  6.836222e-02
  2.968186e-02
  1.971186e-02
  1.634945e-02
  1.794612e-02
  3.197704e-02
  8.276272e-02
  2.277445e-01
  5.182769e-01
  7.826659e-01
  9.070191e-01
  9.525675e-01
  9.552976e-01
  8.979619e-01
  6.676708e-01
  2.284111e-01
  8.197800e-02
  6.356062e-02
  1.095269e-01
  2.732805e-01
  4.978229e-01
  5.270198e-01
  3.256757e-01
  1.243517e-01
  5.738134e-02
  5.891553e-02
  1.759573e-01
  6.396624e-01
  9.228356e-01
  9.871219e-01
  9.981649e-01
  9.964312e-01
  9.772316e-01
  8.765104e-01
  4.629465e-01
  1.046899e-01
  2.254159e-02
  1.035180e-02
  1.246418e-02
  1.109950e-02
  1.527464e-02
  1.965843e-02
  2.371785e-02
  2.932795e-02
  4.776385e-02
  1.325768e-01
  4.709051e-01
  8.785981e-01
  9.818282e-01
  9.994751e-01
  9.996442e-01
  9.965783e-01
  9.934622e-01
  9.912216e-01
  9.902768e-01
  9.906792e-01
  9.921621e-01
  9.942201e-01
  9.959968e-01
  9.955851e-01
  9.864575e-01
  9.316383e-01
  6.967375e-01
  2.156259e-01
  6.333683e-02
  2.969504e-02
  2.071547e-02
  1.687538e-02
  1.516715e-02
  1.693278e-02
  2.813727e-02
  6.500716e-02
  1.610440e-01
  3.505084e-01
  6.008858e-01
  7.391745e-01
  7.496044e-01
  6.202362e-01
  3.292704e-01
  1.172297e-01
  5.579581e-02
  4.717741e-02
  6.102091e-02
  1.021413e-01
  1.579117e-01
  1.659186e-01
  1.142055e-01
  6.310267e-02
  4.085996e-02
  4.415845e-02
  1.184495e-01
  4.537838e-01
  8.616594e-01
  9.730325e-01
  9.946265e-01
  9.954946e-01
  9.823926e-01
  9.167598e-01
  6.327731e-01
  1.684299e-01
  3.427516e-02
  9.630747e-03
  8.045653e-03
  8.133386e-03
  1.058988e-02
  1.355727e-02
  1.715225e-02
  2.361480e-02
  4.385187e-02
  1.309528e-01
  4.733884e-01
  8.821672e-01
  9.840122e-01
  9.999000e-01
  9.977711e-01
  9.903242e-01
  9.800547e-01
  9.694636e-01
  9.619297e-01
  9.586081e-01
  9.586094e-01
  9.599719e-01
  9.594794e-01
  9.499557e-01
  9.105493e-01
  7.783425e-01
  4.373128e-01
  1.325821e-01
  4.771339e-02
  2.787805e-02
  2.224090e-02
  2.016937e-02
  1.962583e-02
  2.006033e-02
  2.256064e-02
  3.101361e-02
  5.348648e-02
  1.008572e-01
  1.729091e-01
  2.282918e-01
  2.335565e-01
  1.830487e-01
  1.047778e-01
  5.548437e-02
  3.981482e-02
  3.810595e-02
  4.271077e-02
  5.313030e-02
  6.629529e-02
  7.068487e-02
  6.147762e-02
  4.773638e-02
  3.696533e-02
  3.565093e-02
  7.303390e-02
  2.692935e-01
  7.404181e-01
  9.405233e-01
  9.866963e-01
  9.938601e-01
  9.868237e-01
  9.488144e-01
  7.783404e-01
  3.069971e-01
  7.399682e-02
  1.791680e-02
  7.880042e-03
  9.766337e-03
  9.209377e-03
  1.106473e-02
  1.424746e-02
  1.996416e-02
  3.519251e-02
  9.334986e-02
  3.221295e-01
  7.562910e-01
  9.240031e-01
  9.611782e-01
  9.582656e-01
  9.352639e-01
  8.933044e-01
  8.441143e-01
  8.079020e-01
  7.899109e-01
  7.850053e-01
  7.843995e-01
  7.754288e-01
  7.333873e-01
  6.073796e-01
  3.701854e-01
  1.629016e-01
  6.365873e-02
  3.461421e-02
  2.740826e-02
  2.756624e-02
  3.350378e-02
  4.397426e-02
  5.358153e-02
  6.003899e-02
  6.501241e-02
  7.132901e-02
  8.068352e-02
  9.034159e-02
  9.072859e-02
  7.880752e-02
  6.134933e-02
  4.477292e-02
  3.545603e-02
  3.286359e-02
  3.361496e-02
  3.661225e-02
  4.326748e-02
  5.643905e-02
  7.409830e-02
  8.311151e-02
  7.572370e-02
  5.655933e-02
  4.009500e-02
  4.907552e-02
  1.458337e-01
  5.045151e-01
  8.547367e-01
  9.635989e-01
  9.882395e-01
  9.890716e-01
  9.709348e-01
  8.874274e-01
  5.832232e-01
  1.996472e-01
  5.653542e-02
  1.835051e-02
  2.561080e-02
  1.308583e-02
  1.061593e-02
  1.201823e-02
  1.601670e-02
  2.497788e-02
  5.175263e-02
  1.456101e-01
  3.990477e-01
  6.643279e-01
  7.626165e-01
  7.566531e-01
  6.764912e-01
  5.206627e-01
  3.605048e-01
  2.729109e-01
  2.403753e-01
  2.334584e-01
  2.344885e-01
  2.306876e-01
  2.100395e-01
  1.643416e-01
  1.030484e-01
  5.754853e-02
  3.622481e-02
  3.006608e-02
  3.271064e-02
  4.946436e-02
  9.449489e-02
  1.649936e-01
  2.242447e-01
  2.587139e-01
  2.749545e-01
  2.793892e-01
  2.706793e-01
  2.389868e-01
  1.756322e-01
  1.002117e-01
  5.375819e-02
  3.579873e-02
  3.066547e-02
  3.015879e-02
  3.172936e-02
  3.685546e-02
  5.415829e-02
  1.058759e-01
  1.964224e-01
  2.570721e-01
  2.440330e-01
  1.670202e-01
  8.228723e-02
  4.729480e-02
  7.478524e-02
  2.442838e-01
  6.440494e-01
  8.902653e-01
  9.669411e-01
  9.853992e-01
  9.825995e-01
  9.518351e-01
  8.291474e-01
  5.079176e-01
  1.978819e-01
  6.819517e-02
  9.723921e-02
  3.733855e-02
  1.734298e-02
  1.220767e-02
  1.305855e-02
  1.754853e-02
  2.779857e-02
  5.385858e-02
  1.137163e-01
  1.876508e-01
  2.244666e-01
  2.154223e-01
  1.748169e-01
  1.218647e-01
  7.980264e-02
  5.932585e-02
  5.400230e-02
  5.632408e-02
  6.068990e-02
  6.235242e-02
  5.873747e-02
  5.024361e-02
  3.990789e-02
  3.252455e-02
  2.973355e-02
  3.285246e-02
  5.244553e-02
  1.295195e-01
  3.343439e-01
  6.053102e-01
  7.543008e-01
  8.061132e-01
  8.213104e-01
  8.223017e-01
  8.079994e-01
  7.524746e-01
  5.895564e-01
  3.088242e-01
  1.148990e-01
  4.842148e-02
  3.222913e-02
  2.964141e-02
  3.200365e-02
  4.460974e-02
  1.004610e-01
  3.025808e-01
  6.212164e-01
  7.677979e-01
  7.504135e-01
  5.598691e-01
  2.440142e-01
  7.995703e-02
  4.848682e-02
  9.886867e-02
  3.038003e-01
  6.747255e-01
  8.888299e-01
  9.620311e-01
  9.816264e-01
  9.780946e-01
  9.435038e-01
  8.284547e-01
  5.649586e-01
  2.554308e-01
  3.490963e-01
  1.428870e-01
  5.574849e-02
  2.484573e-02
  1.583128e-02
  1.523861e-02
  1.865087e-02
  2.570660e-02
  3.754645e-02
  5.018703e-02
  5.519366e-02
  5.073439e-02
  4.036257e-02
  2.910791e-02
  2.184159e-02
  2.111531e-02
  2.729844e-02
  3.912302e-02
  5.048611e-02
  5.233913e-02
  4.470024e-02
  3.621053e-02
  3.126440e-02
  2.933646e-02
  3.069415e-02
  4.212179e-02
  9.883441e-02
  3.271422e-01
  7.245286e-01
  9.025902e-01
  9.554588e-01
  9.692023e-01
  9.723422e-01
  9.723006e-01
  9.686971e-01
  9.526194e-01
  8.905757e-01
  6.853010e-01
  2.777456e-01
  8.476809e-02
  3.891751e-02
  3.068650e-02
  3.400917e-02
  5.950440e-02
  1.851396e-01
  6.138170e-01
  8.891501e-01
  9.606350e-01
  9.552023e-01
  8.622873e-01
  5.424362e-01
  1.531918e-01
  4.981381e-02
  4.427870e-02
  1.051549e-01
  2.998657e-01
  6.468206e-01
  8.689298e-01
  9.533593e-01
  9.787284e-01
  9.783781e-01
  9.517072e-01
  8.688768e-01
  6.692609e-01
  7.605668e-01
  4.762747e-01
  2.188292e-01
  9.474823e-02
  4.658889e-02
  2.899317e-02
  2.306854e-02
  2.204240e-02
  2.277101e-02
  2.354610e-02
  2.273137e-02
  2.007784e-02
  1.671060e-02
  1.443359e-02
  1.584065e-02
  2.576206e-02
  5.337707e-02
  1.023423e-01
  1.471226e-01
  1.427771e-01
  9.481267e-02
  5.347459e-02
  3.652450e-02
  3.159661e-02
  3.372045e-02
  5.414079e-02
  1.604330e-01
  5.646200e-01
  8.943836e-01
  9.796786e-01
  9.959560e-01
  9.980956e-01
  9.981125e-01
  9.980038e-01
  9.976553e-01
  9.945413e-01
  9.741620e-01
  8.712851e-01
  4.956751e-01
  1.380734e-01
  4.871531e-02
  3.245998e-02
  3.594485e-02
  7.145891e-02
  2.486488e-01
  7.673100e-01
  9.609819e-01
  9.999000e-01
  9.988875e-01
  9.523372e-01
  7.326723e-01
  2.198420e-01
  5.909239e-02
  2.935162e-02
  3.855861e-02
  9.463132e-02
  2.612996e-01
  5.856667e-01
  8.356385e-01
  9.408352e-01
  9.754679e-01
  9.807605e-01
  9.644385e-01
  9.081434e-01
  9.343308e-01
  8.382602e-01
  6.429734e-01
  3.728940e-01
  2.033780e-01
  1.171571e-01
  7.093082e-02
  4.604747e-02
  3.080176e-02
  2.276453e-02
  1.869844e-02
  1.587503e-02
  1.393454e-02
  1.451804e-02
  2.340740e-02
  6.005865e-02
  1.723536e-01
  3.708054e-01
  5.327388e-01
  5.004214e-01
  2.923181e-01
  1.109483e-01
  5.045323e-02
  3.536793e-02
  3.578467e-02
  5.958034e-02
  1.871496e-01
  6.505017e-01
  9.308319e-01
  9.922755e-01
  9.999000e-01
  9.999000e-01
  9.999000e-01
  9.999000e-01
  9.999000e-01
  9.999000e-01
  9.912201e-01
  9.224718e-01
  6.126373e-01
  1.713300e-01
  5.492046e-02
  3.355974e-02
  3.618919e-02
  7.201841e-02
  2.515715e-01
  7.726552e-01
  9.626125e-01
  9.999000e-01
  9.999000e-01
  9.602666e-01
  7.580150e-01
  2.335858e-01
  6.210140e-02
  2.657443e-02
  2.166904e-02
  3.279118e-02
  7.840857e-02
  2.130646e-01
  4.996689e-01
  7.832651e-01
  9.170230e-01
  9.649933e-01
  9.780678e-01
  9.705803e-01
  9.656516e-01
  9.504778e-01
  9.043932e-01
  8.139609e-01
  6.769819e-01
  4.799043e-01
  2.982635e-01
  1.733209e-01
  8.350956e-02
  3.863390e-02
  2.287675e-02
  1.696644e-02
  1.478116e-02
  1.848041e-02
  4.458183e-02
  1.597210e-01
  4.972706e-01
  8.012363e-01
  9.012733e-01
  8.735072e-01
  6.557979e-01
  2.218654e-01
  7.218833e-02
  3.919568e-02
  3.554519e-02
  5.384012e-02
  1.556991e-01
  5.484760e-01
  8.877689e-01
  9.777995e-01
  9.957481e-01
  9.987301e-01
  9.993304e-01
  9.996850e-01
  9.999000e-01
  9.984750e-01
  9.832812e-01
  8.972093e-01
  5.524841e-01
  1.543658e-01
  5.229141e-02
  3.352695e-02
  3.520235e-02
  6.158135e-02
  1.933863e-01
  6.357206e-01
  8.997784e-01
  9.671390e-01
  9.679551e-01
  9.012568e-01
  6.318238e-01
  1.862203e-01
  5.515984e-02
  2.654765e-02
  1.942731e-02
  1.899473e-02
  2.803186e-02
  6.249134e-02
  1.623244e-01
  3.860180e-01
  6.858840e-01
  8.558632e-01
  9.311800e-01
  9.597240e-01
  9.096409e-01
  9.469229e-01
  9.591215e-01
  9.514805e-01
  9.260750e-01
  8.760747e-01
  7.862971e-01
  5.908873e-01
  2.790914e-01
  9.059312e-02
  3.513764e-02
  2.008894e-02
  1.656319e-02
  2.619479e-02
  8.800006e-02
  3.485540e-01
  7.855146e-01
  9.507824e-01
  9.884733e-01
  9.675761e-01
  8.107481e-01
  3.004043e-01
  8.681296e-02
  4.073951e-02
  3.358361e-02
  4.241423e-02
  9.486823e-02
  3.105415e-01
  7.104107e-01
  8.989735e-01
  9.566045e-01
  9.728391e-01
  9.777713e-01
  9.792500e-01
  9.778431e-01
  9.679162e-01
  9.241131e-01
  7.579973e-01
  3.454071e-01
  1.029259e-01
  4.493249e-02
  3.577504e-02
  3.845240e-02
  5.223909e-02
  1.127393e-01
  3.331808e-01
  6.559685e-01
  7.965441e-01
  7.991494e-01
  6.630735e-01
  3.358425e-01
  1.094817e-01
  4.606351e-02
  2.937524e-02
  2.257986e-02
  1.876397e-02
  1.817123e-02
  2.440229e-02
  4.751188e-02
  1.101610e-01
  2.475518e-01
  4.783682e-01
  7.063632e-01
  8.352707e-01
  6.411495e-01
  8.161932e-01
  9.186534e-01
  9.642575e-01
  9.793058e-01
  9.787689e-01
  9.604473e-01
  8.845035e-01
  6.218081e-01
  1.927192e-01
  5.643178e-02
  2.462366e-02
  1.939945e-02
  4.051009e-02
  1.644159e-01
  5.990867e-01
  9.069497e-01
  9.864822e-01
  9.999000e-01
  9.755374e-01
  8.230598e-01
  3.018303e-01
  8.464697e-02
  3.917695e-02
  3.165030e-02
  3.408036e-02
  5.205862e-02
  1.246876e-01
  3.258279e-01
  6.054557e-01
  7.649168e-01
  8.241014e-01
  8.452175e-01
  8.508362e-01
  8.425540e-01
  8.045948e-01
  6.830151e-01
  4.037264e-01
  1.523699e-01
  6.193880e-02
  4.631775e-02
  5.598411e-02
  6.948972e-02
  7.682582e-02
  8.625895e-02
  1.296597e-01
  2.181710e-01
  2.845774e-01
  2.867528e-01
  2.210521e-01
  1.262388e-01
  7.351917e-02
  5.690513e-02
  4.658022e-02
  3.493379e-02
  2.522095e-02
  1.962090e-02
  1.805569e-02
  2.140274e-02
  3.388064e-02
  6.439096e-02
  1.261071e-01
  2.301253e-01
  4.032798e-01
  2.004605e-01
  4.120578e-01
  7.157847e-01
  8.984187e-01
  9.700823e-01
  9.945849e-01
  9.981409e-01
  9.665925e-01
  7.944507e-01
  2.788620e-01
  7.510853e-02
  2.876029e-02
  2.470775e-02
  6.813620e-02
  2.837829e-01
  7.707411e-01
  9.528060e-01
  9.923848e-01
  9.929075e-01
  9.502950e-01
  7.452883e-01
  2.406502e-01
  6.978328e-02
  3.661605e-02
  3.171805e-02
  3.177775e-02
  3.549200e-02
  5.154911e-02
  9.669542e-02
  1.726934e-01
  2.443229e-01
  2.951881e-01
  3.261079e-01
  3.369607e-01
  3.238705e-01
  2.821257e-01
  2.102829e-01
  1.220015e-01
  6.411086e-02
  5.265856e-02
  8.423127e-02
  1.613601e-01
  2.312576e-01
  2.422015e-01
  1.901787e-01
  1.188702e-01
  8.969616e-02
  8.839384e-02
  8.843804e-02
  8.579820e-02
  9.584210e-02
  1.270517e-01
  1.499169e-01
  1.325804e-01
  8.745709e-02
  4.826544e-02
  2.798925e-02
  2.035738e-02
  1.816169e-02
  1.906674e-02
  2.364048e-02
  3.421956e-02
  5.526391e-02
  1.002180e-01
  4.972401e-02
  1.197238e-01
  3.154479e-01
  6.676497e-01
  8.871784e-01
  9.678688e-01
  9.899607e-01
  9.657471e-01
  8.010256e-01
  2.866870e-01
  7.763590e-02
  3.150644e-02
  3.813529e-02
  1.315631e-01
  4.893977e-01
  8.691177e-01
  9.709586e-01
  9.885065e-01
  9.722500e-01
  8.780109e-01
  5.433778e-01
  1.547372e-01
  5.403253e-02
  3.898465e-02
  3.883605e-02
  3.767217e-02
  3.480032e-02
  3.440631e-02
  4.007295e-02
  5.202898e-02
  6.503101e-02
  7.559047e-02
  8.282946e-02
  8.598545e-02
  8.381200e-02
  7.541594e-02
  6.162967e-02
  4.739890e-02
  4.555229e-02
  8.176718e-02
  2.338697e-01
  5.407961e-01
  7.353123e-01
  7.515859e-01
  5.985958e-01
  2.887226e-01
  1.034773e-01
  5.596917e-02
  5.462625e-02
  9.004657e-02
  2.127416e-01
  4.058298e-01
  5.278352e-01
  4.791678e-01
  3.029146e-01
  1.349344e-01
  5.254414e-02
  2.760002e-02
  2.082696e-02
  1.884825e-02
  1.826343e-02
  1.846911e-02
  2.021876e-02
  2.707644e-02
  1.909943e-02
  3.531526e-02
  9.682910e-02
  2.785249e-01
  6.089396e-01
  8.231930e-01
  8.943402e-01
  8.583015e-01
  6.315383e-01
  2.063466e-01
  6.294528e-02
  3.713361e-02
  7.639497e-02
  2.739292e-01
  7.205139e-01
  9.305748e-01
  9.782627e-01
  9.769078e-01
  9.242279e-01
  7.117133e-01
  2.844279e-01
  8.739276e-02
  5.414619e-02
  6.611639e-02
  7.672038e-02
  6.919674e-02
  5.035369e-02
  3.698994e-02
  3.128878e-02
  2.994937e-02
  3.056794e-02
  3.204457e-02
  3.384474e-02
  3.529064e-02
  3.566895e-02
  3.469985e-02
  3.314821e-02
  3.442453e-02
  5.230938e-02
  1.475970e-01
  5.089774e-01
  8.502171e-01
  9.516548e-01
  9.570954e-01
  8.784385e-01
  5.852644e-01
  1.764897e-01
  6.534088e-02
  6.502704e-02
  1.681552e-01
  5.304729e-01
  8.182285e-01
  9.013914e-01
  8.812107e-01
  7.400570e-01
  3.849590e-01
  1.149054e-01
  4.191818e-02
  2.608700e-02
  2.282266e-02
  2.202050e-02
  2.100307e-02
  1.902771e-02
  1.713558e-02
  2.078870e-02
  1.958206e-02
  3.294876e-02
  8.170144e-02
  1.974955e-01
  3.640600e-01
  4.885424e-01
  4.462950e-01
  2.597707e-01
  9.856288e-02
  4.777557e-02
  6.233271e-02
  1.863701e-01
  5.500415e-01
  8.691012e-01
  9.630131e-01
  9.780966e-01
  9.517112e-01
  8.173694e-01
  4.249109e-01
  1.325514e-01
  6.761896e-02
  1.070935e-01
  2.017346e-01
  2.532442e-01
  2.116477e-01
  1.147093e-01
  5.589364e-02
  3.502127e-02
  2.832435e-02
  2.680250e-02
  2.827574e-02
  3.169125e-02
  3.486869e-02
  3.581216e-02
  3.419728e-02
  3.212922e-02
  3.510296e-02
  6.186912e-02
  2.012404e-01
  6.830608e-01
  9.404963e-01
  9.981773e-01
  9.999000e-01
  9.538197e-01
  7.366177e-01
  2.315273e-01
  7.773611e-02
  8.258346e-02