# vtk DataFile Version 2.0
time_10.vtk
ASCII
DATASET STRUCTURED_GRID
DIMENSIONS    64    64     1
POINTS    4096 float
  0.000000e+00   0.000000e+00   0.000000e+00
  0.000000e+00   1.000000e+00   0.000000e+00
  0.000000e+00   2.000000e+00   0.000000e+00
  0.000000e+00   3.000000e+00   0.000000e+00
  0.000000e+00   4.000000e+00   0.000000e+00
  0.000000e+00   5.000000e+00   0.000000e+00
  0.000000e+00   6.000000e+00   0.000000e+00
  0.000000e+00   7.000000e+00   0.000000e+00
  0.000000e+00   8.000000e+00   0.000000e+00
  0.000000e+00   9.000000e+00   0.000000e+00
  0.000000e+00   1.000000e+01   0.000000e+00
  0.000000e+00   1.100000e+01   0.000000e+00
  0.000000e+00   1.200000e+01   0.000000e+00
  0.000000e+00   1.300000e+01   0.000000e+00
  0.000000e+00   1.400000e+01   0.000000e+00
  0.000000e+00   1.500000e+01   0.000000e+00
  0.000000e+00   1.600000e+01   0.000000e+00
  0.000000e+00   1.700000e+01   0.000000e+00
  0.000000e+00   1.800000e+01   0.000000e+00
  0.000000e+00   1.900000e+01   0.000000e+00
  0.000000e+00   2.000000e+01   0.000000e+00
  0.000000e+00   2.100000e+01   0.000000e+00
  0.000000e+00   2.200000e+01   0.000000e+00
  0.000000e+00   2.300000e+01   0.000000e+00
  0.000000e+00   2.400000e+01   0.000000e+00
  0.000000e+00   2.500000e+01   0.000000e+00
  0.000000e+00   2.600000e+01   0.000000e+00
  0.000000e+00   2.700000e+01   0.000000e+00
  0.000000e+00   2.800000e+01   0.000000e+00
  0.000000e+00   2.900000e+01   0.000000e+00
  0.000000e+00   3.000000e+01   0.000000e+00
  0.000000e+00   3.100000e+01   0.000000e+00
  0.000000e+00   3.200000e+01   0.000000e+00
  0.000000e+00   3.300000e+01   0.000000e+00
  0.000000e+00   3.400000e+01   0.000000e+00
  0.000000e+00   3.500000e+01   0.000000e+00
  0.000000e+00   3.600000e+01   0.000000e+00
  0.000000e+00   3.700000e+01   0.000000e+00
  0.000000e+00   3.800000e+01   0.000000e+00
  0.000000e+00   3.900000e+01   0.000000e+00
  0.000000e+00   4.000000e+01   0.000000e+00
  0.000000e+00   4.100000e+01   0.000000e+00
  0.000000e+00   4.200000e+01   0.000000e+00
  0.000000e+00   4.300000e+01   0.000000e+00
  0.000000e+00   4.400000e+01   0.000000e+00
  0.000000e+00   4.500000e+01   0.000000e+00
  0.000000e+00   4.600000e+01   0.000000e+00
  0.000000e+00   4.700000e+01   0.000000e+00
  0.000000e+00   4.800000e+01   0.000000e+00
  0.000000e+00   4.900000e+01   0.000000e+00
  0.000000e+00   5.000000e+01   0.000000e+00
  0.000000e+00   5.100000e+01   0.000000e+00
  0.000000e+00   5.200000e+01   0.000000e+00
  0.000000e+00   5.300000e+01   0.000000e+00
  0.000000e+00   5.400000e+01   0.000000e+00
  0.000000e+00   5.500000e+01   0.000000e+00
  0.000000e+00   5.600000e+01   0.000000e+00
  0.000000e+00   5.700000e+01   0.000000e+00
  0.000000e+00   5.800000e+01   0.000000e+00
  0.000000e+00   5.900000e+01   0.000000e+00
  0.000000e+00   6.000000e+01   0.000000e+00
  0.000000e+00   6.100000e+01   0.000000e+00
  0.000000e+00   6.200000e+01   0.000000e+00
  0.000000e+00   6.300000e+01   0.000000e+00
  1.000000e+00   0.000000e+00   0.000000e+00
  1.000000e+00   1.000000e+00   0.000000e+00
  1.000000e+00   2.000000e+00   0.000000e+00
  1.000000e+00   3.000000e+00   0.000000e+00
  1.000000e+00   4.000000e+00   0.000000e+00
  1.000000e+00   5.000000e+00   0.000000e+00
  1.000000e+00   6.000000e+00   0.000000e+00
  1.000000e+00   7.000000e+00   0.000000e+00
  1.000000e+00   8.000000e+00   0.000000e+00
  1.000000e+00   9.000000e+00   0.000000e+00
  1.000000e+00   1.000000e+01   0.000000e+00
  1.000000e+00   1.100000e+01   0.000000e+00
  1.000000e+00   1.200000e+01   0.000000e+00
  1.000000e+00   1.300000e+01   0.000000e+00
  1.000000e+00   1.400000e+01   0.000000e+00
  1.000000e+00   1.500000e+01   0.000000e+00
  1.000000e+00   1.600000e+01   0.000000e+00
  1.000000e+00   1.700000e+01   0.000000e+00
  1.000000e+00   1.800000e+01   0.000000e+00
  1.000000e+00   1.900000e+01   0.000000e+00
  1.000000e+00   2.000000e+01   0.000000e+00
  1.000000e+00   2.100000e+01   0.000000e+00
  1.000000e+00   2.200000e+01   0.000000e+00
  1.000000e+00   2.300000e+01   0.000000e+00
  1.000000e+00   2.400000e+01   0.000000e+00
  1.000000e+00   2.500000e+01   0.000000e+00
  1.000000e+00   2.600000e+01   0.000000e+00
  1.000000e+00   2.700000e+01   0.000000e+00
  1.000000e+00   2.800000e+01   0.000000e+00
  1.000000e+00   2.900000e+01   0.000000e+00
  1.000000e+00   3.000000e+01   0.000000e+00
  1.000000e+00   3.100000e+01   0.000000e+00
  1.000000e+00   3.200000e+01   0.000000e+00
  1.000000e+00   3.300000e+01   0.000000e+00
  1.000000e+00   3.400000e+01   0.000000e+00
  1.000000e+00   3.500000e+01   0.000000e+00
  1.000000e+00   3.600000e+01   0.000000e+00
  1.000000e+00   3.700000e+01   0.000000e+00
  1.000000e+00   3.800000e+01   0.000000e+00
  1.000000e+00   3.900000e+01   0.000000e+00
  1.000000e+00   4.000000e+01   0.000000e+00
  1.000000e+00   4.100000e+01   0.000000e+00
  1.000000e+00   4.200000e+01   0.000000e+00
  1.000000e+00   4.300000e+01   0.000000e+00
  1.000000e+00   4.400000e+01   0.000000e+00
  1.000000e+00   4.500000e+01   0.000000e+00
  1.000000e+00   4.600000e+01   0.000000e+00
  1.000000e+00   4.700000e+01   0.000000e+00
  1.000000e+00   4.800000e+01   0.000000e+00
  1.000000e+00   4.900000e+01   0.000000e+00
  1.000000e+00   5.000000e+01   0.000000e+00
  1.000000e+00   5.100000e+01   0.000000e+00
  1.000000e+00   5.200000e+01   0.000000e+00
  1.000000e+00   5.300000e+01   0.000000e+00
  1.000000e+00   5.400000e+01   0.000000e+00
  1.000000e+00   5.500000e+01   0.000000e+00
  1.000000e+00   5.600000e+01   0.000000e+00
  1.000000e+00   5.700000e+01   0.000000e+00
  1.000000e+00   5.800000e+01   0.000000e+00
  1.000000e+00   5.900000e+01   0.000000e+00
  1.000000e+00   6.000000e+01   0.000000e+00
  1.000000e+00   6.100000e+01   0.000000e+00
  1.000000e+00   6.200000e+01   0.000000e+00
  1.000000e+00   6.300000e+01   0.000000e+00
  2.000000e+00   0.000000e+00   0.000000e+00
  2.000000e+00   1.000000e+00   0.000000e+00
  2.000000e+00   2.000000e+00   0.000000e+00
  2.000000e+00   3.000000e+00   0.000000e+00
  2.000000e+00   4.000000e+00   0.000000e+00
  2.000000e+00   5.000000e+00   0.000000e+00
  2.000000e+00   6.000000e+00   0.000000e+00
  2.000000e+00   7.000000e+00   0.000000e+00
  2.000000e+00   8.000000e+00   0.000000e+00
  2.000000e+00   9.000000e+00   0.000000e+00
  2.000000e+00   1.000000e+01   0.000000e+00
  2.000000e+00   1.100000e+01   0.000000e+00
  2.000000e+00   1.200000e+01   0.000000e+00
  2.000000e+00   1.300000e+01   0.000000e+00
  2.000000e+00   1.400000e+01   0.000000e+00
  2.000000e+00   1.500000e+01   0.000000e+00
  2.000000e+00   1.600000e+01   0.000000e+00
  2.000000e+00   1.700000e+01   0.000000e+00
  2.000000e+00   1.800000e+01   0.000000e+00
  2.000000e+00   1.900000e+01   0.000000e+00
  2.000000e+00   2.000000e+01   0.000000e+00
  2.000000e+00   2.100000e+01   0.000000e+00
  2.000000e+00   2.200000e+01   0.000000e+00
  2.000000e+00   2.300000e+01   0.000000e+00
  2.000000e+00   2.400000e+01   0.000000e+00
  2.000000e+00   2.500000e+01   0.000000e+00
  2.000000e+00   2.600000e+01   0.000000e+00
  2.000000e+00   2.700000e+01   0.000000e+00
  2.000000e+00   2.800000e+01   0.000000e+00
  2.000000e+00   2.900000e+01   0.000000e+00
  2.000000e+00   3.000000e+01   0.000000e+00
  2.000000e+00   3.100000e+01   0.000000e+00
  2.000000e+00   3.200000e+01   0.000000e+00
  2.000000e+00   3.300000e+01   0.000000e+00
  2.000000e+00   3.400000e+01   0.000000e+00
  2.000000e+00   3.500000e+01   0.000000e+00
  2.000000e+00   3.600000e+01   0.000000e+00
  2.000000e+00   3.700000e+01   0.000000e+00
  2.000000e+00   3.800000e+01   0.000000e+00
  2.000000e+00   3.900000e+01   0.000000e+00
  2.000000e+00   4.000000e+01   0.000000e+00
  2.000000e+00   4.100000e+01   0.000000e+00
  2.000000e+00   4.200000e+01   0.000000e+00
  2.000000e+00   4.300000e+01   0.000000e+00
  2.000000e+00   4.400000e+01   0.000000e+00
  2.000000e+00   4.500000e+01   0.000000e+00
  2.000000e+00   4.600000e+01   0.000000e+00
  2.000000e+00   4.700000e+01   0.000000e+00
  2.000000e+00   4.800000e+01   0.000000e+00
  2.000000e+00   4.900000e+01   0.000000e+00
  2.000000e+00   5.000000e+01   0.000000e+00
  2.000000e+00   5.100000e+01   0.000000e+00
  2.000000e+00   5.200000e+01   0.000000e+00
  2.000000e+00   5.300000e+01   0.000000e+00
  2.000000e+00   5.400000e+01   0.000000e+00
  2.000000e+00   5.500000e+01   0.000000e+00
  2.000000e+00   5.600000e+01   0.000000e+00
  2.000000e+00   5.700000e+01   0.000000e+00
  2.000000e+00   5.800000e+01   0.000000e+00
  2.000000e+00   5.900000e+01   0.000000e+00
  2.000000e+00   6.000000e+01   0.000000e+00
  2.000000e+00   6.100000e+01   0.000000e+00
  2.000000e+00   6.200000e+01   0.000000e+00
  2.000000e+00   6.300000e+01   0.000000e+00
  3.000000e+00   0.000000e+00   0.000000e+00
  3.000000e+00   1.000000e+00   0.000000e+00
  3.000000e+00   2.000000e+00   0.000000e+00
  3.000000e+00   3.000000e+00   0.000000e+00
  3.000000e+00   4.000000e+00   0.000000e+00
  3.000000e+00   5.000000e+00   0.000000e+00
  3.000000e+00   6.000000e+00   0.000000e+00
  3.000000e+00   7.000000e+00   0.000000e+00
  3.000000e+00   8.000000e+00   0.000000e+00
  3.000000e+00   9.000000e+00   0.000000e+00
  3.000000e+00   1.000000e+01   0.000000e+00
  3.000000e+00   1.100000e+01   0.000000e+00
  3.000000e+00   1.200000e+01   0.000000e+00
  3.000000e+00   1.300000e+01   0.000000e+00
  3.000000e+00   1.400000e+01   0.000000e+00
  3.000000e+00   1.500000e+01   0.000000e+00
  3.000000e+00   1.600000e+01   0.000000e+00
  3.000000e+00   1.700000e+01   0.000000e+00
  3.000000e+00   1.800000e+01   0.000000e+00
  3.000000e+00   1.900000e+01   0.000000e+00
  3.000000e+00   2.000000e+01   0.000000e+00
  3.000000e+00   2.100000e+01   0.000000e+00
  3.000000e+00   2.200000e+01   0.000000e+00
  3.000000e+00   2.300000e+01   0.000000e+00
  3.000000e+00   2.400000e+01   0.000000e+00
  3.000000e+00   2.500000e+01   0.000000e+00
  3.000000e+00   2.600000e+01   0.000000e+00
[...]
POINT_DATA  4096
SCALARS CON float 1
LOOKUP_TABLE default
  1.946052e-01
  6.916752e-01
  9.409193e-01
  9.944995e-01
  9.999000e-01
  9.997063e-01
  9.647278e-01
  7.789450e-01
  2.453068e-01
  6.529998e-02
  3.017833e-02
  2.494020e-02
  2.502277e-02
  2.593836e-02
  2.703218e-02
  2.820715e-02
  2.928630e-02
  2.994289e-02
  2.977574e-02
  2.843736e-02
  2.580993e-02
  2.228837e-02
  1.900506e-02
  1.719785e-02
  1.994266e-02
  4.171114e-02
  1.394291e-01
  4.430343e-01
  8.024960e-01
  9.441174e-01
  9.836213e-01
  9.932791e-01
  9.944370e-01
  9.912494e-01
  9.801644e-01
  9.485491e-01
  8.660907e-01
  6.714762e-01
  3.379463e-01
  1.183929e-01
  4.472704e-02
  2.854792e-02
  2.803715e-02
  3.099909e-02
  3.351589e-02
  3.427990e-02
  3.315384e-02
  3.074044e-02
  2.810157e-02
  2.695513e-02
  3.056434e-02
  4.755587e-02
  9.926304e-02
  1.894292e-01
  2.592712e-01
  2.726735e-01
  2.271589e-01
  1.438767e-01
  6.961991e-02
  3.318731e-02
  2.095026e-02
  1.861912e-02
  2.339561e-02
  5.166184e-02
  1.347333e-01
  5.035208e-01
  8.606900e-01
  9.664825e-01
  9.890524e-01
  9.847057e-01
  9.305454e-01
  6.973620e-01
  2.149658e-01
  7.013977e-02
  5.024483e-02
  5.676369e-02
  6.555614e-02
  7.250167e-02
  7.805271e-02
  8.285330e-02
  8.656205e-02
  8.777536e-02
  8.460330e-02
  7.559503e-02
  6.064412e-02
  4.243545e-02
  2.794515e-02
  2.035507e-02
  1.772997e-02
  2.257342e-02
  5.333591e-02
  1.751655e-01
  4.992878e-01
  8.204677e-01
  9.463623e-01
  9.836564e-01
  9.938760e-01
  9.961931e-01
  9.951182e-01
  9.892547e-01
  9.701440e-01
  9.080941e-01
  7.111326e-01
  3.094622e-01
  9.002907e-02
  3.657463e-02
  2.639989e-02
  2.510442e-02
  2.521552e-02
  2.523171e-02
  2.497842e-02
  2.467286e-02
  2.491063e-02
  2.769726e-02
  4.143547e-02
  1.011627e-01
  3.100143e-01
  6.267735e-01
  7.809088e-01
  8.041913e-01
  7.305209e-01
  5.080663e-01
  2.243058e-01
  7.503801e-02
  2.913798e-02
  1.867305e-02
  2.037080e-02
  3.952276e-02
  6.958671e-02
  2.407130e-01
  6.080892e-01
  8.300717e-01
  9.004637e-01
  8.900159e-01
  7.751099e-01
  4.527344e-01
  1.563911e-01
  1.043224e-01
  1.518946e-01
  2.186964e-01
  2.685602e-01
  3.015800e-01
  3.252107e-01
  3.438720e-01
  3.568041e-01
  3.586155e-01
  3.416684e-01
  2.991168e-01
  2.272596e-01
  1.339809e-01
  6.155240e-02
  3.070162e-02
  2.015118e-02
  1.758544e-02
  2.435575e-02
  6.069384e-02
  1.919185e-01
  5.129121e-01
  8.188943e-01
  9.437199e-01
  9.830637e-01
  9.949598e-01
  9.986295e-01
  9.991097e-01
  9.955801e-01
  9.778785e-01
  8.930809e-01
  5.776763e-01
  1.622780e-01
  5.081068e-02
  2.902878e-02
  2.513291e-02
  2.445889e-02
  2.427337e-02
  2.415247e-02
  2.422559e-02
  2.528658e-02
  3.114582e-02
  6.081545e-02
  2.003283e-01
  6.390086e-01
  8.939298e-01
  9.620698e-01
  9.703326e-01
  9.454539e-01
  8.474751e-01
  5.648796e-01
  1.918694e-01
  5.334130e-02
  2.130747e-02
  1.722768e-02
  2.622840e-02
  3.228014e-02
  8.272225e-02
  2.087821e-01
  3.838712e-01
  5.153877e-01
  5.012735e-01
  3.504326e-01
  1.867820e-01
  1.349879e-01
  2.618185e-01
  5.295747e-01
  7.278929e-01
  8.057299e-01
  8.333117e-01
  8.454890e-01
  8.531243e-01
  8.583206e-01
  8.595702e-01
  8.521164e-01
  8.217329e-01
  7.214280e-01
  4.611455e-01
  1.744043e-01
  5.851174e-02
  2.702868e-02
  1.826067e-02
  1.675189e-02
  2.472456e-02
  6.228331e-02
  1.897875e-01
  4.941699e-01
  8.019930e-01
  9.360877e-01
  9.808782e-01
  9.953061e-01
  9.999000e-01
  9.999000e-01
  9.947457e-01
  9.469760e-01
  7.173798e-01
  2.137173e-01
  6.179235e-02
  3.172787e-02
  2.616012e-02
  2.507337e-02
  2.475888e-02
  2.458666e-02
  2.465752e-02
  2.604825e-02
  3.446741e-02
  7.941171e-02
  2.900200e-01
  8.017221e-01
  9.656335e-01
  9.971123e-01
  9.996121e-01
  9.922416e-01
  9.573828e-01
  8.173385e-01
  4.102964e-01
  1.069675e-01
  2.949526e-02
  1.540039e-02
  1.733007e-02
  1.731471e-02
  3.097848e-02
  6.019389e-02
  1.024654e-01
  1.375136e-01
  1.370374e-01
  1.069677e-01
  9.466911e-02
  1.900306e-01
  5.703070e-01
  8.535432e-01
  9.445202e-01
  9.684617e-01
  9.747855e-01
  9.769981e-01
  9.784582e-01
  9.797851e-01
  9.806944e-01
  9.800238e-01
  9.733246e-01
  9.391523e-01
  7.974449e-01
  3.957094e-01
  1.110711e-01
  3.821688e-02
  2.111312e-02
  1.608827e-02
  1.570881e-02
  2.389953e-02
  5.898403e-02
  1.732159e-01
  4.480877e-01
  7.660642e-01
  9.182268e-01
  9.726169e-01
  9.915595e-01
  9.969170e-01
  9.901603e-01
  9.361029e-01
  6.927748e-01
  2.062368e-01
  6.149702e-02
  3.252071e-02
  2.700163e-02
  2.585398e-02
  2.547743e-02
  2.521714e-02
  2.515368e-02
  2.650799e-02
  3.604765e-02
  8.907597e-02
  3.358388e-01
  8.472613e-01
  9.794661e-01
  9.999000e-01
  9.999000e-01
  9.992894e-01
  9.865256e-01
  9.234322e-01
  6.678868e-01
  2.044666e-01
  4.784766e-02
  1.595151e-02
  1.248003e-02
  1.105666e-02
  1.586137e-02
  2.387264e-02
  3.409697e-02
  4.275033e-02
  4.560475e-02
  4.777126e-02
  7.903741e-02
  2.535565e-01
  7.584048e-01
  9.512262e-01
  9.922308e-01
  9.981114e-01
  9.986431e-01
  9.986534e-01
  9.988232e-01
  9.991818e-01
  9.996251e-01
  9.999000e-01
  9.999000e-01
  9.883300e-01
  9.128801e-01
  5.914546e-01
  1.630309e-01
  4.860730e-02
  2.397229e-02
  1.727867e-02
  1.466406e-02
  1.494427e-02
  2.250153e-02
  5.244287e-02
  1.457308e-01
  3.721103e-01
  6.898592e-01
  8.663671e-01
  9.380335e-01
  9.576951e-01
  9.380526e-01
  8.281555e-01
  4.881876e-01
  1.430097e-01
  5.045252e-02
  3.129535e-02
  2.744966e-02
  2.660663e-02
  2.630500e-02
  2.602846e-02
  2.579803e-02
  2.674693e-02
  3.550473e-02
  8.680406e-02
  3.294071e-01
  8.441170e-01
  9.779333e-01
  9.993512e-01
  9.999000e-01
  9.999000e-01
  9.944046e-01
  9.638379e-01
  8.204662e-01
  3.650487e-01
  8.629543e-02
  2.105608e-02
  1.013116e-02
  7.847291e-03
  1.011522e-02
  1.388904e-02
  1.815622e-02
  2.211110e-02
  2.572494e-02
  3.406030e-02
  7.475037e-02
  2.708233e-01
  7.988255e-01
  9.684986e-01
  9.992315e-01
  9.999000e-01
  9.999000e-01
  9.999000e-01
  9.999000e-01
  9.999000e-01
  9.999000e-01
  9.999000e-01
  9.999000e-01
  9.903109e-01
  9.193034e-01
  6.060084e-01
  1.674017e-01
  4.995288e-02
  2.511114e-02
  1.858723e-02
  1.578225e-02
  1.438488e-02
  1.514227e-02
  2.170291e-02
  4.473347e-02
  1.102073e-01
  2.595676e-01
  5.002845e-01
  6.968751e-01
  7.594897e-01
  7.041826e-01
  4.890218e-01
  2.104982e-01
  7.477214e-02
  3.794914e-02
  2.952395e-02
  2.775243e-02
  2.749535e-02
  2.760859e-02
  2.768980e-02
  2.746308e-02
  2.766666e-02
  3.388881e-02
  7.525315e-02
  2.805422e-01
  8.017972e-01
  9.656265e-01
  9.963012e-01
  9.999000e-01
  9.999000e-01
  9.968876e-01
  9.812615e-01
  9.058163e-01
  6.006142e-01
  1.674636e-01
  3.681816e-02
  1.073474e-02
  7.223182e-03
  7.098482e-03
  9.617213e-03
  1.276967e-02
  1.601979e-02
  1.979166e-02
  2.816671e-02
  6.331472e-02
  2.288061e-01
  7.303491e-01
  9.444420e-01
  9.915629e-01
  9.984614e-01
  9.987034e-01
  9.980767e-01
  9.975063e-01
  9.970600e-01
  9.964986e-01
  9.948761e-01
  9.883329e-01
  9.589239e-01
  8.335373e-01
  4.366396e-01
  1.212432e-01
  4.175601e-02
  2.441175e-02
  1.968343e-02
  1.771726e-02
  1.700301e-02
  1.777151e-02
  2.062425e-02
  2.736774e-02
  4.378502e-02
  8.061911e-02
  1.453417e-01
  2.131931e-01
  2.410184e-01
  2.133138e-01
  1.422386e-01
  7.376046e-02
  4.115061e-02
  3.098039e-02
  2.851114e-02
  2.834754e-02
  2.923554e-02
  3.115591e-02
  3.349044e-02
  3.429217e-02
  3.301364e-02
  3.432283e-02
  6.027711e-02
  2.060993e-01
  6.844381e-01
  9.290360e-01
  9.867174e-01
  9.977753e-01
  9.992705e-01
  9.976362e-01
  9.895067e-01
  9.519511e-01
  7.850340e-01
  3.269036e-01
  7.955570e-02
  1.859651e-02
  1.381146e-02
  6.989337e-03
  7.487274e-03
  9.946728e-03
  1.299251e-02
  1.660159e-02
  2.310711e-02
  4.540064e-02
  1.442790e-01
  4.989038e-01
  8.287282e-01
  9.398737e-01
  9.680411e-01
  9.737556e-01
  9.738513e-01
  9.725793e-01
  9.706020e-01
  9.666018e-01
  9.555314e-01
  9.219511e-01
  8.236168e-01
  5.701593e-01
  2.134439e-01
  6.784995e-02
  3.177958e-02
  2.329223e-02
  2.107215e-02
  2.135952e-02
  2.524326e-02
  3.480347e-02
  4.854652e-02
  6.155722e-02
  7.325087e-02
  8.550786e-02
  9.796148e-02
  1.029994e-01
  9.264967e-02
  7.228751e-02
  5.184178e-02
  3.720125e-02
  3.042336e-02
  2.840126e-02
  2.844405e-02
  2.999158e-02
  3.453023e-02
  4.517107e-02
  6.020036e-02
  6.762973e-02
  6.083403e-02
  4.728211e-02
  5.014588e-02
  1.250621e-01
  4.412155e-01
  8.257016e-01
  9.565147e-01
  9.891313e-01
  9.965680e-01
  9.971836e-01
  9.933272e-01
  9.757360e-01
  8.969128e-01
  6.026925e-01
  1.961066e-01
  4.957618e-02
  4.773001e-02
  1.731869e-02
  1.004783e-02
  9.710923e-03
  1.170152e-02
  1.466810e-02
  1.909351e-02
  2.979867e-02
  6.823549e-02
  2.035510e-01
  4.793091e-01
  7.112016e-01
  8.006132e-01
  8.259243e-01
  8.301283e-01
  8.271086e-01
  8.195051e-01
  8.025052e-01
  7.580323e-01
  6.413362e-01
  4.150913e-01
  2.015376e-01
  7.945005e-02
  3.707190e-02
  2.570709e-02
  2.310195e-02
  2.404280e-02
  3.131008e-02
  5.628084e-02
  1.135036e-01
  1.911859e-01
  2.524720e-01
  2.899982e-01
  3.053132e-01
  2.935273e-01
  2.444306e-01
  1.601781e-01
  8.185412e-02
  4.390782e-02
  3.134756e-02
  2.807955e-02
  2.788039e-02
  2.937542e-02
  3.469657e-02
  5.303049e-02
  1.057381e-01
  1.874529e-01
  2.289025e-01
  1.961620e-01
  1.156206e-01
  6.197427e-02
  7.261439e-02
  2.090849e-01
  5.795662e-01
  8.605026e-01
  9.582199e-01
  9.866481e-01
  9.941680e-01
  9.943130e-01
  9.871422e-01
  9.551265e-01
  8.247762e-01
  4.622061e-01
  1.552796e-01
  1.851588e-01
  7.316279e-02
  3.373712e-02
  1.987638e-02
  1.584788e-02
  1.573791e-02
  1.764882e-02
  2.201591e-02
  3.353169e-02
  6.612167e-02
  1.335326e-01
  2.107266e-01
  2.616839e-01
  2.848411e-01
  2.899792e-01
  2.855102e-01
  2.749240e-01
  2.565232e-01
  2.245502e-01
  1.731938e-01
  1.090678e-01
  6.027926e-02
  3.494816e-02
  2.589358e-02
  2.362897e-02
  2.444809e-02
  3.115746e-02
  6.106543e-02
  1.708769e-01
  4.155243e-01
  6.724977e-01
  7.885741e-01
  8.271547e-01
  8.350827e-01
  8.169017e-01
  7.379443e-01
  5.163883e-01
  2.220341e-01
  7.614598e-02
  3.711976e-02
  2.893896e-02
  2.835923e-02
  3.167425e-02
  4.646291e-02
  1.094691e-01
  3.255803e-01
  6.242697e-01
  7.359173e-01
  6.539191e-01
  3.706691e-01
  1.277086e-01
  6.018234e-02
  8.780418e-02
  2.489485e-01
  5.932859e-01
  8.472638e-01
  9.478189e-01
  9.811944e-01
  9.909095e-01
  9.909807e-01
  9.803038e-01
  9.359066e-01
  7.829949e-01
  4.512800e-01
  5.762915e-01
  3.031481e-01
  1.540686e-01
  8.002612e-02
  4.568304e-02
  2.919639e-02
  2.226186e-02
  2.093745e-02
  2.321069e-02
  2.966324e-02
  4.155329e-02
  5.497801e-02
  6.406397e-02
  6.793131e-02
  6.838277e-02
  6.728568e-02
  6.539379e-02
  6.215614e-02
  5.627333e-02
  4.699476e-02
  3.613717e-02
  2.816647e-02
  2.426703e-02
  2.320019e-02
  2.376886e-02
  2.741216e-02
  4.523474e-02
  1.297933e-01
  4.430165e-01
  7.948616e-01
  9.274498e-01
  9.648943e-01
  9.747406e-01
  9.763928e-01
  9.713288e-01
  9.452083e-01
  8.396758e-01
  5.153434e-01
  1.515604e-01
  5.145838e-02
  3.157295e-02
  2.936535e-02
  3.509203e-02
  6.552747e-02
  2.086745e-01
  6.566558e-01
  9.004714e-01
  9.548329e-01
  9.177732e-01
  7.137472e-01
  2.518947e-01
  7.623843e-02
  4.703955e-02
  8.501711e-02
  2.280380e-01
  5.292283e-01
  8.015049e-01
  9.267197e-01
  9.720312e-01
  9.863681e-01
  9.876562e-01
  9.762405e-01
  9.337107e-01
  8.143873e-01
  8.870734e-01
  7.666309e-01
  5.712170e-01
  3.419561e-01
  1.918067e-01
  9.813542e-02
  4.826587e-02
  2.835835e-02
  2.281203e-02
  2.207801e-02
  2.289794e-02
  2.388832e-02
  2.425703e-02
  2.418440e-02
  2.438969e-02
  2.556378e-02
  2.775627e-02
  2.982672e-02
  3.022664e-02
  2.843312e-02
  2.564111e-02
  2.373584e-02
  2.311677e-02
  2.338605e-02
  2.479105e-02
  3.102926e-02
  6.263594e-02
  2.165392e-01
  7.029753e-01
  9.343045e-01
  9.884480e-01
  9.978290e-01
  9.993147e-01
  9.995544e-01
  9.988759e-01
  9.918947e-01
  9.456900e-01
  7.344212e-01
  2.324041e-01
  6.740306e-02
  3.451741e-02
  3.031426e-02
  3.768877e-02
  8.002795e-02
  2.803639e-01
  7.997027e-01
  9.701229e-01
  9.999000e-01
  9.816942e-01
  8.463080e-01
  3.533682e-01
  9.649474e-02
  3.859275e-02
  3.556644e-02
  6.954872e-02
  1.775125e-01
  4.196285e-01
  7.247711e-01
  8.899111e-01
  9.560166e-01
  9.795590e-01
  9.848660e-01
  9.775878e-01
  9.507239e-01
  9.721236e-01
  9.473539e-01
  8.984329e-01
  8.090052e-01
  6.426405e-01
  3.662154e-01
  1.520043e-01
  5.671108e-02
  2.949662e-02
  2.231705e-02
  1.978861e-02
  1.828458e-02
  1.733740e-02
  1.760361e-02
  2.057194e-02
  2.821302e-02
  4.067345e-02
  5.214515e-02
  5.504991e-02
  4.751295e-02
  3.574440e-02
  2.804680e-02
  2.508211e-02
  2.453060e-02
  2.585012e-02
  3.340071e-02
  7.301804e-02
  2.647037e-01
  7.931651e-01
  9.673980e-01
  9.991569e-01
  9.999000e-01
  9.999000e-01
  9.999000e-01
  9.999000e-01
  9.991312e-01
  9.682857e-01
  7.978765e-01
  2.689675e-01
  7.518769e-02
  3.610351e-02
  3.078820e-02
  3.799057e-02
  8.065785e-02
  2.830745e-01
  8.036956e-01
  9.712538e-01
  9.999000e-01
  9.842461e-01
  8.553313e-01
  3.661318e-01
  9.992328e-02
  3.720216e-02
  2.418181e-02
  2.741166e-02
  5.172300e-02
  1.255135e-01
  3.043219e-01
  6.062684e-01
  8.250765e-01
  9.286088e-01
  9.691790e-01
  9.824820e-01
  9.826181e-01
  9.879471e-01
  9.877824e-01
  9.810201e-01
  9.632619e-01
  9.153462e-01
  7.725097e-01
  4.287003e-01
  1.302697e-01
  4.562765e-02
  2.578459e-02
  2.002447e-02
  1.753984e-02
  1.716788e-02
  2.133831e-02
  3.684697e-02
  7.492759e-02
  1.384983e-01
  1.941763e-01
  2.024840e-01
  1.553383e-01
  8.625349e-02
  4.462172e-02
  3.011392e-02
  2.623932e-02
  2.650958e-02
  3.329294e-02
  7.028221e-02
  2.501184e-01
  7.679498e-01
  9.581675e-01
  9.960656e-01
  9.999000e-01
  9.999000e-01
  9.999000e-01
  9.999000e-01
  9.944861e-01
  9.535970e-01
  7.566654e-01
  2.447730e-01
  7.057789e-02
  3.583134e-02
  3.123136e-02
  3.687391e-02
  6.849012e-02
  2.181135e-01
  6.776333e-01
  9.111713e-01
  9.624775e-01
  9.332748e-01
  7.509947e-01
  2.793869e-01
  8.173807e-02
  3.464687e-02
  2.254257e-02
  1.906831e-02
  2.170505e-02
  3.696727e-02
  8.363805e-02
  2.022463e-01
  4.402174e-01
  7.254325e-01
  8.856120e-01
  9.540836e-01
  9.798990e-01
  9.768237e-01
  9.919844e-01
  9.971990e-01
  9.969168e-01
  9.867470e-01
  9.345127e-01
  7.164695e-01
  2.350027e-01
  6.814638e-02
  3.053942e-02
  2.096421e-02
  1.818512e-02
  2.143945e-02
  4.143341e-02
  1.096354e-01
  2.748065e-01
  5.242142e-01
  6.921856e-01
  7.060439e-01
  5.553749e-01
  2.756610e-01
  9.545536e-02
  4.166212e-02
  2.880974e-02
  2.669540e-02
  3.087286e-02
  5.601765e-02
  1.789769e-01
  6.017328e-01
  8.855019e-01
  9.658174e-01
  9.851496e-01
  9.897076e-01
  9.890659e-01
  9.829289e-01
  9.601348e-01
  8.709514e-01
  5.724371e-01
  1.704744e-01
  5.684879e-02
  3.539102e-02
  3.456576e-02
  4.012377e-02
  5.735256e-02
  1.274831e-01
  3.680644e-01
  6.685868e-01
  7.723312e-01
  7.073791e-01
  4.370262e-01
  1.507816e-01
  5.647805e-02
  3.193881e-02
  2.380182e-02
  1.946081e-02
  1.707382e-02
  1.793685e-02
  2.635731e-02
  5.356849e-02
  1.262410e-01
  2.964859e-01
  5.953931e-01
  8.257356e-01
  9.348131e-01
  9.120372e-01
  9.712567e-01
  9.927697e-01
  9.999000e-01
  9.999000e-01
  9.731805e-01
  8.158123e-01
  2.994528e-01
  8.321155e-02
  3.373470e-02
  2.186364e-02
  2.113416e-02
  3.766857e-02
  1.122391e-01
  3.427282e-01
  6.949496e-01
  8.779283e-01
  9.411688e-01
  9.443495e-01
  8.751881e-01
  6.199308e-01
  1.986714e-01
  6.211386e-02
  3.230422e-02
  2.651694e-02
  2.756405e-02
  3.897663e-02
  9.213132e-02
  2.900777e-01
  6.301295e-01
  8.199269e-01
  8.932899e-01
  9.189331e-01
  9.158235e-01
  8.836011e-01
  8.015290e-01
  5.969750e-01
  2.672843e-01
  8.919001e-02
  4.418917e-02
  4.084505e-02
  5.361054e-02
  7.099668e-02
  8.317762e-02
  9.752927e-02
  1.444757e-01
  2.226920e-01
  2.617062e-01
  2.283317e-01
  1.407435e-01
  6.982007e-02
  4.397636e-02
  3.558185e-02
  3.026500e-02
  2.467031e-02
  1.966563e-02
  1.643708e-02
  1.568542e-02
  1.957124e-02
  3.482301e-02
  8.011522e-02
  2.009127e-01
  4.582197e-01
  7.571384e-01
  6.799776e-01
  8.725790e-01
  9.514447e-01
  9.796779e-01
  9.850307e-01
  9.530779e-01
  7.782611e-01
  2.780933e-01
  7.944626e-02
  3.324989e-02
  2.315654e-02
  3.096225e-02
  8.681958e-02
  3.001434e-01
  7.011900e-01
  9.106354e-01
  9.756599e-01
  9.937617e-01
  9.942509e-01
  9.636561e-01
  8.022983e-01
  2.988672e-01
  8.255377e-02
  3.519411e-02
  2.592499e-02
  2.482305e-02
  2.821822e-02
  4.352746e-02
  9.486752e-02
  2.063778e-01
  3.538713e-01
  5.064557e-01
  5.937835e-01
  5.828150e-01
  4.786470e-01
  3.277625e-01
  1.912298e-01
  9.098311e-02
  4.844220e-02
  4.412788e-02
  7.018335e-02
  1.437165e-01
  2.287501e-01
  2.584305e-01
  2.174265e-01
  1.406136e-01
  9.748522e-02
  8.492670e-02
  7.399241e-02
  5.989632e-02
  5.486169e-02
  6.241281e-02
  6.803141e-02
  6.176309e-02
  4.560069e-02
  2.987090e-02
  2.080177e-02
  1.641913e-02
  1.469475e-02
  1.610758e-02
  2.500630e-02
  5.492356e-02
  1.417730e-01
  3.545252e-01
  2.621497e-01
  5.371223e-01
  7.564610e-01
  8.487437e-01
  8.675773e-01
  8.023290e-01
  5.484829e-01
  1.798241e-01
  5.932722e-02
  2.993821e-02
  2.734554e-02
  5.884657e-02
  2.099023e-01
  6.149581e-01
  8.916466e-01
  9.748785e-01
  9.957742e-01
  9.999000e-01
  9.999000e-01
  9.808696e-01
  8.539459e-01
  3.521587e-01
  9.296135e-02
  3.574280e-02
  2.470889e-02
  2.272722e-02
  2.316420e-02
  2.647587e-02
  3.675385e-02
  5.861334e-02
  9.046973e-02
  1.265466e-01
  1.497439e-01
  1.469524e-01
  1.204859e-01
  8.618041e-02
  5.838136e-02
  4.137501e-02
  3.947155e-02
  6.307581e-02
  1.666891e-01
  4.620660e-01
  7.164765e-01
  7.706538e-01
  6.565540e-01
  3.497728e-01
  1.223621e-01
  5.872028e-02
  4.723386e-02
  5.768390e-02
  1.030852e-01
  1.831106e-01
  2.329777e-01
  2.147617e-01
  1.405704e-01
  6.752674e-02
  3.318282e-02
  2.122445e-02
  1.679406e-02
  1.496099e-02
  1.539327e-02
  2.112130e-02
  4.199703e-02
  1.047012e-01
  7.310582e-02
  1.517916e-01
  2.577935e-01
  3.548932e-01
  3.912290e-01
  3.266244e-01
  1.926259e-01
  8.022442e-02
  3.867726e-02
  2.767226e-02
  4.021302e-02
  1.271825e-01
  4.474970e-01
  8.324418e-01
  9.613641e-01
  9.925759e-01
  9.993595e-01
  9.999000e-01
  9.998098e-01
  9.801769e-01
  8.529068e-01
  3.454639e-01
  8.904798e-02
  3.329076e-02
  2.279896e-02
  2.086883e-02
  2.058796e-02
  2.098949e-02
  2.255287e-02
  2.598331e-02
  3.117872e-02
  3.719948e-02
  4.136870e-02
  4.147880e-02
  3.794378e-02
  3.350149e-02
  3.078121e-02
  3.176970e-02
  4.319891e-02
  9.730835e-02
  3.233405e-01
  7.779445e-01
  9.400129e-01
  9.629876e-01
  9.044528e-01
  6.523702e-01
  2.053880e-01
  7.047241e-02
  5.449154e-02
  1.048683e-01
  3.028996e-01
  6.080739e-01
  7.461167e-01
  7.108056e-01
  4.890637e-01
  1.989783e-01
  6.643933e-02
  3.043429e-02
  2.107267e-02
  1.799889e-02
  1.675736e-02
  1.709334e-02
  2.111111e-02
  3.513920e-02
  3.122309e-02
  4.686386e-02
  7.046428e-02
  9.484754e-02
  1.060538e-01
  9.321046e-02
  6.473974e-02
  4.002697e-02
  2.866097e-02
  3.056897e-02
  7.167011e-02
  2.686323e-01
  7.191892e-01
  9.327038e-01
  9.860671e-01
  9.977519e-01
  9.999000e-01
  9.999000e-01
  9.973767e-01
  9.702424e-01
  8.171311e-01
  2.929763e-01
  7.429482e-02
  2.866323e-02
  2.042689e-02
  1.906585e-02
  1.884620e-02
  1.882648e-02
  1.905615e-02
  1.981839e-02
  2.131383e-02
  2.345076e-02
  2.553711e-02
  2.662295e-02
  2.656050e-02
  2.631996e-02
  2.723837e-02
  3.143562e-02
  4.804760e-02
  1.233728e-01
  4.317682e-01
  8.765687e-01
  9.884661e-01
  9.999000e-01
  9.632657e-01
  7.711112e-01
  2.574726e-01
  8.332174e-02
  7.286745e-02