# vtk DataFile Version 2.0
time_10.vtk
ASCII
DATASET STRUCTURED_GRID
DIMENSIONS    64    64     1
POINTS    4096 float
  0.000000e+00   0.000000e+00   0.000000e+00
  0.000000e+00   1.000000e+00   0.000000e+00
  0.000000e+00   2.000000e+00   0.000000e+00
  0.000000e+00   3.000000e+00   0.000000e+00
  0.000000e+00   4.000000e+00   0.000000e+00
  0.000000e+00   5.000000e+00   0.000000e+00
  0.000000e+00   6.000000e+00   0.000000e+00
  0.000000e+00   7.000000e+00   0.000000e+00
  0.000000e+00   8.000000e+00   0.000000e+00
  0.000000e+00   9.000000e+00   0.000000e+00
  0.000000e+00   1.000000e+01   0.000000e+00
  0.000000e+00   1.100000e+01   0.000000e+00
  0.000000e+00   1.200000e+01   0.000000e+00
  0.000000e+00   1.300000e+01   0.000000e+00
  0.000000e+00   1.400000e+01   0.000000e+00
  0.000000e+00   1.500000e+01   0.000000e+00
  0.000000e+00   1.600000e+01   0.000000e+00
  0.000000e+00   1.700000e+01   0.000000e+00
  0.000000e+00   1.800000e+01   0.000000e+00
  0.000000e+00   1.900000e+01   0.000000e+00
  0.000000e+00   2.000000e+01   0.000000e+00
  0.000000e+00   2.100000e+01   0.000000e+00
  0.000000e+00   2.200000e+01   0.000000e+00
  0.000000e+00   2.300000e+01   0.000000e+00
  0.000000e+00   2.400000e+01   0.000000e+00
  0.000000e+00   2.500000e+01   0.000000e+00
  0.000000e+00   2.600000e+01   0.000000e+00
  0.000000e+00   2.700000e+01   0.000000e+00
  0.000000e+00   2.800000e+01   0.000000e+00
  0.000000e+00   2.900000e+01   0.000000e+00
  0.000000e+00   3.000000e+01   0.000000e+00
  0.000000e+00   3.100000e+01   0.000000e+00
  0.000000e+00   3.200000e+01   0.000000e+00
  0.000000e+00   3.300000e+01   0.000000e+00
  0.000000e+00   3.400000e+01   0.000000e+00
  0.000000e+00   3.500000e+01   0.000000e+00
  0.000000e+00   3.600000e+01   0.000000e+00
  0.000000e+00   3.700000e+01   0.000000e+00
  0.000000e+00   3.800000e+01   0.000000e+00
  0.000000e+00   3.900000e+01   0.000000e+00
  0.000000e+00   4.000000e+01   0.000000e+00
  0.000000e+00   4.100000e+01   0.000000e+00
  0.000000e+00   4.200000e+01   0.000000e+00
  0.000000e+00   4.300000e+01   0.000000e+00
  0.000000e+00   4.400000e+01   0.000000e+00
  0.000000e+00   4.500000e+01   0.000000e+00
  0.000000e+00   4.600000e+01   0.000000e+00
  0.000000e+00   4.700000e+01   0.000000e+00
  0.000000e+00   4.800000e+01   0.000000e+00
  0.000000e+00   4.900000e+01   0.000000e+00
  0.000000e+00   5.000000e+01   0.000000e+00
  0.000000e+00   5.100000e+01   0.000000e+00
  0.000000e+00   5.200000e+01   0.000000e+00
  0.000000e+00   5.300000e+01   0.000000e+00
  0.000000e+00   5.400000e+01   0.000000e+00
  0.000000e+00   5.500000e+01   0.000000e+00
  0.000000e+00   5.600000e+01   0.000000e+00
  0.000000e+00   5.700000e+01   0.000000e+00
  0.000000e+00   5.800000e+01   0.000000e+00
  0.000000e+00   5.900000e+01   0.000000e+00
  0.000000e+00   6.000000e+01   0.000000e+00
  0.000000e+00   6.100000e+01   0.000000e+00
  0.000000e+00   6.200000e+01   0.000000e+00
  0.000000e+00   6.300000e+01   0.000000e+00
  1.000000e+00   0.000000e+00   0.000000e+00
  1.000000e+00   1.000000e+00   0.000000e+00
  1.000000e+00   2.000000e+00   0.000000e+00
  1.000000e+00   3.000000e+00   0.000000e+00
  1.000000e+00   4.000000e+00   0.000000e+00
  1.000000e+00   5.000000e+00   0.000000e+00
  1.000000e+00   6.000000e+00   0.000000e+00
  1.000000e+00   7.000000e+00   0.000000e+00
  1.000000e+00   8.000000e+00   0.000000e+00
  1.000000e+00   9.000000e+00   0.000000e+00
  1.000000e+00   1.000000e+01   0.000000e+00
  1.000000e+00   1.100000e+01   0.000000e+00
  1.000000e+00   1.200000e+01   0.000000e+00
  1.000000e+00   1.300000e+01   0.000000e+00
  1.000000e+00   1.400000e+01   0.000000e+00
  1.000000e+00   1.500000e+01   0.000000e+00
  1.000000e+00   1.600000e+01   0.000000e+00
  1.000000e+00   1.700000e+01   0.000000e+00
  1.000000e+00   1.800000e+01   0.000000e+00
  1.000000e+00   1.900000e+01   0.000000e+00
  1.000000e+00   2.000000e+01   0.000000e+00
  1.000000e+00   2.100000e+01   0.000000e+00
  1.000000e+00   2.200000e+01   0.000000e+00
  1.000000e+00   2.300000e+01   0.000000e+00
  1.000000e+00   2.400000e+01   0.000000e+00
  1.000000e+00   2.500000e+01   0.000000e+00
  1.000000e+00   2.600000e+01   0.000000e+00
  1.000000e+00   2.700000e+01   0.000000e+00
  1.000000e+00   2.800000e+01   0.000000e+00
  1.000000e+00   2.900000e+01   0.000000e+00
  1.000000e+00   3.000000e+01   0.000000e+00
  1.000000e+00   3.100000e+01   0.000000e+00
  1.000000e+00   3.200000e+01   0.000000e+00
  1.000000e+00   3.300000e+01   0.000000e+00
  1.000000e+00   3.400000e+01   0.000000e+00
  1.000000e+00   3.500000e+01   0.000000e+00
  1.000000e+00   3.600000e+01   0.000000e+00
  1.000000e+00   3.700000e+01   0.000000e+00
  1.000000e+00   3.800000e+01   0.000000e+00
  1.000000e+00   3.900000e+01   0.000000e+00
  1.000000e+00   4.000000e+01   0.000000e+00
  1.000000e+00   4.100000e+01   0.000000e+00
  1.000000e+00   4.200000e+01   0.000000e+00
  1.000000e+00   4.300000e+01   0.000000e+00
  1.000000e+00   4.400000e+01   0.000000e+00
  1.000000e+00   4.500000e+01   0.000000e+00
  1.000000e+00   4.600000e+01   0.000000e+00
  1.000000e+00   4.700000e+01   0.000000e+00
  1.000000e+00   4.800000e+01   0.000000e+00
  1.000000e+00   4.900000e+01   0.000000e+00
  1.000000e+00   5.000000e+01   0.000000e+00
  1.000000e+00   5.100000e+01   0.000000e+00
  1.000000e+00   5.200000e+01   0.000000e+00
  1.000000e+00   5.300000e+01   0.000000e+00
  1.000000e+00   5.400000e+01   0.000000e+00
  1.000000e+00   5.500000e+01   0.000000e+00
  1.000000e+00   5.600000e+01   0.000000e+00
  1.000000e+00   5.700000e+01   0.000000e+00
  1.000000e+00   5.800000e+01   0.000000e+00
  1.000000e+00   5.900000e+01   0.000000e+00
  1.000000e+00   6.000000e+01   0.000000e+00
  1.000000e+00   6.100000e+01   0.000000e+00
  1.000000e+00   6.200000e+01   0.000000e+00
  1.000000e+00   6.300000e+01   0.000000e+00
  2.000000e+00   0.000000e+00   0.000000e+00
  2.000000e+00   1.000000e+00   0.000000e+00
  2.000000e+00   2.000000e+00   0.000000e+00
  2.000000e+00   3.000000e+00   0.000000e+00
  2.000000e+00   4.000000e+00   0.000000e+00
  2.000000e+00   5.000000e+00   0.000000e+00
  2.000000e+00   6.000000e+00   0.000000e+00
  2.000000e+00   7.000000e+00   0.000000e+00
  2.000000e+00   8.000000e+00   0.000000e+00
  2.000000e+00   9.000000e+00   0.000000e+00
  2.000000e+00   1.000000e+01   0.000000e+00
  2.000000e+00   1.100000e+01   0.000000e+00
  2.000000e+00   1.200000e+01   0.000000e+00
  2.000000e+00   1.300000e+01   0.000000e+00
  2.000000e+00   1.400000e+01   0.000000e+00
  2.000000e+00   1.500000e+01   0.000000e+00
  2.000000e+00   1.600000e+01   0.000000e+00
  2.000000e+00   1.700000e+01   0.000000e+00
  2.000000e+00   1.800000e+01   0.000000e+00
  2.000000e+00   1.900000e+01   0.000000e+00
  2.000000e+00   2.000000e+01   0.000000e+00
  2.000000e+00   2.100000e+01   0.000000e+00
  2.000000e+00   2.200000e+01   0.000000e+00
  2.000000e+00   2.300000e+01   0.000000e+00
  2.000000e+00   2.400000e+01   0.000000e+00
  2.000000e+00   2.500000e+01   0.000000e+00
  2.000000e+00   2.600000e+01   0.000000e+00
  2.000000e+00   2.700000e+01   0.000000e+00
  2.000000e+00   2.800000e+01   0.000000e+00
  2.000000e+00   2.900000e+01   0.000000e+00
  2.000000e+00   3.000000e+01   0.000000e+00
  2.000000e+00   3.100000e+01   0.000000e+00
  2.000000e+00   3.200000e+01   0.000000e+00
  2.000000e+00   3.300000e+01   0.000000e+00
  2.000000e+00   3.400000e+01   0.000000e+00
  2.000000e+00   3.500000e+01   0.000000e+00
  2.000000e+00   3.600000e+01   0.000000e+00
  2.000000e+00   3.700000e+01   0.000000e+00
  2.000000e+00   3.800000e+01   0.000000e+00
  2.000000e+00   3.900000e+01   0.000000e+00
  2.000000e+00   4.000000e+01   0.000000e+00
  2.000000e+00   4.100000e+01   0.000000e+00
  2.000000e+00   4.200000e+01   0.000000e+00
  2.000000e+00   4.300000e+01   0.000000e+00
  2.000000e+00   4.400000e+01   0.000000e+00
  2.000000e+00   4.500000e+01   0.000000e+00
  2.000000e+00   4.600000e+01   0.000000e+00
  2.000000e+00   4.700000e+01   0.000000e+00
  2.000000e+00   4.800000e+01   0.000000e+00
  2.000000e+00   4.900000e+01   0.000000e+00
  2.000000e+00   5.000000e+01   0.000000e+00
  2.000000e+00   5.100000e+01   0.000000e+00
  2.000000e+00   5.200000e+01   0.000000e+00
  2.000000e+00   5.300000e+01   0.000000e+00
  2.000000e+00   5.400000e+01   0.000000e+00
  2.000000e+00   5.500000e+01   0.000000e+00
  2.000000e+00   5.600000e+01   0.000000e+00
  2.000000e+00   5.700000e+01   0.000000e+00
  2.000000e+00   5.800000e+01   0.000000e+00
  2.000000e+00   5.900000e+01   0.000000e+00
  2.000000e+00   6.000000e+01   0.000000e+00
  2.000000e+00   6.100000e+01   0.000000e+00
  2.000000e+00   6.200000e+01   0.000000e+00
  2.000000e+00   6.300000e+01   0.000000e+00
  3.000000e+00   0.000000e+00   0.000000e+00
  3.000000e+00   1.000000e+00   0.000000e+00
  3.000000e+00   2.000000e+00   0.000000e+00
  3.000000e+00   3.000000e+00   0.000000e+00
  3.000000e+00   4.000000e+00   0.000000e+00
  3.000000e+00   5.000000e+00   0.000000e+00
  3.000000e+00   6.000000e+00   0.000000e+00
  3.000000e+00   7.000000e+00   0.000000e+00
  3.000000e+00   8.000000e+00   0.000000e+00
  3.000000e+00   9.000000e+00   0.000000e+00
  3.000000e+00   1.000000e+01   0.000000e+00
  3.000000e+00   1.100000e+01   0.000000e+00
  3.000000e+00   1.200000e+01   0.000000e+00
  3.000000e+00   1.300000e+01   0.000000e+00
  3.000000e+00   1.400000e+01   0.000000e+00
  3.000000e+00   1.500000e+01   0.000000e+00
  3.000000e+00   1.600000e+01   0.000000e+00
  3.000000e+00   1.700000e+01   0.000000e+00
  3.000000e+00   1.800000e+01   0.000000e+00
  3.000000e+00   1.900000e+01   0.000000e+00
  3.000000e+00   2.000000e+01   0.000000e+00
  3.000000e+00   2.100000e+01   0.000000e+00
  3.000000e+00   2.200000e+01   0.000000e+00
  3.000000e+00   2.300000e+01   0.000000e+00
  3.000000e+00   2.400000e+01   0.000000e+00
  3.000000e+00   2.500000e+01   0.000000e+00
  3.000000e+00   2.600000e+01   0.000000e+00
[...]
POINT_DATA  4096
SCALARS CON float 1
LOOKUP_TABLE default
  7.671364e-01
  9.578222e-01
  9.965367e-01
  9.999000e-01
  9.981336e-01
  9.889423e-01
  9.544746e-01
  8.200773e-01
  4.266082e-01
  1.151567e-01
  3.655414e-02
  1.982105e-02
  1.595450e-02
  1.559620e-02
  1.780837e-02
  2.314799e-02
  3.093391e-02
  3.794312e-02
  4.133115e-02
  4.146907e-02
  4.040105e-02
  3.804925e-02
  3.407898e-02
  2.944193e-02
  2.803030e-02
  4.210164e-02
  1.119915e-01
  3.356778e-01
  6.989804e-01
  8.936062e-01
  9.537050e-01
  9.572422e-01
  9.289272e-01
  8.776883e-01
  8.197597e-01
  7.554776e-01
  6.412059e-01
  4.376366e-01
  2.372514e-01
  1.061605e-01
  4.654580e-02
  2.848237e-02
  2.737869e-02
  4.108686e-02
  8.434458e-02
  1.550318e-01
  1.919806e-01
  1.579574e-01
  8.960873e-02
  5.187107e-02
  4.388032e-02
  6.828352e-02
  1.955626e-01
  5.757413e-01
  8.243751e-01
  8.847461e-01
  8.376885e-01
  6.380580e-01
  2.676075e-01
  8.131642e-02
  3.662427e-02
  3.524361e-02
  7.284857e-02
  2.567219e-01
  8.110388e-01
  9.710448e-01
  9.981240e-01
  9.948546e-01
  9.795863e-01
  9.402009e-01
  8.286695e-01
  5.460245e-01
  1.973702e-01
  6.241389e-02
  2.998762e-02
  2.263153e-02
  2.063219e-02
  2.077968e-02
  2.392789e-02
  3.169684e-02
  4.403317e-02
  5.846108e-02
  7.263052e-02
  8.458021e-02
  9.135417e-02
  8.907531e-02
  7.615998e-02
  5.588250e-02
  3.709364e-02
  3.063053e-02
  4.600783e-02
  1.184544e-01
  3.318191e-01
  6.815382e-01
  8.838101e-01
  9.540837e-01
  9.715281e-01
  9.705439e-01
  9.635046e-01
  9.513782e-01
  9.222300e-01
  8.475077e-01
  6.678534e-01
  3.358080e-01
  1.135531e-01
  4.846038e-02
  4.543794e-02
  9.548873e-02
  2.771880e-01
  5.556755e-01
  6.641458e-01
  5.343551e-01
  2.454239e-01
  9.107097e-02
  5.642572e-02
  9.562365e-02
  3.194859e-01
  7.989258e-01
  9.569560e-01
  9.855756e-01
  9.689693e-01
  8.723590e-01
  5.372956e-01
  1.483258e-01
  4.866048e-02
  3.930851e-02
  8.273199e-02
  2.926760e-01
  7.184630e-01
  9.226963e-01
  9.621428e-01
  9.471902e-01
  8.883384e-01
  7.520521e-01
  4.845606e-01
  2.180464e-01
  9.292623e-02
  6.076869e-02
  5.757145e-02
  5.894356e-02
  6.066919e-02
  6.594534e-02
  8.185578e-02
  1.163329e-01
  1.673065e-01
  2.221746e-01
  2.746291e-01
  3.198725e-01
  3.457051e-01
  3.350360e-01
  2.781344e-01
  1.824285e-01
  8.630656e-02
  4.084000e-02
  2.986024e-02
  4.401946e-02
  1.098945e-01
  3.026215e-01
  6.459429e-01
  8.687406e-01
  9.537203e-01
  9.813308e-01
  9.900325e-01
  9.919679e-01
  9.880988e-01
  9.711225e-01
  9.076228e-01
  6.885509e-01
  2.600949e-01
  8.852844e-02
  7.490707e-02
  1.926902e-01
  6.088891e-01
  8.795470e-01
  9.351115e-01
  8.494823e-01
  4.985450e-01
  1.526797e-01
  7.093283e-02
  1.172286e-01
  4.089568e-01
  8.683787e-01
  9.827805e-01
  9.999000e-01
  9.949140e-01
  9.463675e-01
  7.237037e-01
  2.130443e-01
  5.931296e-02
  3.879604e-02
  7.311181e-02
  2.432616e-01
  4.080333e-01
  6.891662e-01
  7.706884e-01
  7.209360e-01
  5.471376e-01
  3.134827e-01
  1.649653e-01
  1.120941e-01
  1.339197e-01
  1.886349e-01
  2.316030e-01
  2.550757e-01
  2.700775e-01
  2.964510e-01
  3.632422e-01
  4.943406e-01
  6.470299e-01
  7.506472e-01
  8.078844e-01
  8.397561e-01
  8.544319e-01
  8.467296e-01
  7.883457e-01
  5.936520e-01
  2.534106e-01
  8.022110e-02
  3.379048e-02
  2.543623e-02
  3.823600e-02
  9.495384e-02
  2.640609e-01
  5.956281e-01
  8.454995e-01
  9.485608e-01
  9.842859e-01
  9.964729e-01
  9.999000e-01
  9.986623e-01
  9.758384e-01
  8.559898e-01
  4.304152e-01
  1.365970e-01
  9.907923e-02
  2.516757e-01
  7.418928e-01
  9.518950e-01
  9.849527e-01
  9.159512e-01
  5.947029e-01
  1.774230e-01
  7.490714e-02
  1.223980e-01
  4.360482e-01
  8.811584e-01
  9.849104e-01
  9.999000e-01
  9.982583e-01
  9.652494e-01
  7.914222e-01
  2.489624e-01
  6.333950e-02
  3.356799e-02
  5.020487e-02
  1.355354e-01
  1.263571e-01
  2.105318e-01
  2.423830e-01
  2.130566e-01
  1.498026e-01
  9.672143e-02
  9.854433e-02
  2.082110e-01
  4.421305e-01
  6.690886e-01
  7.711359e-01
  8.040598e-01
  8.143554e-01
  8.240991e-01
  8.458962e-01
  8.826807e-01
  9.214819e-01
  9.487018e-01
  9.652645e-01
  9.755270e-01
  9.812659e-01
  9.805728e-01
  9.616213e-01
  8.636356e-01
  5.169117e-01
  1.457682e-01
  4.589403e-02
  2.347449e-02
  2.019090e-02
  3.151064e-02
  7.878421e-02
  2.218364e-01
  5.272469e-01
  8.083531e-01
  9.349541e-01
  9.803783e-01
  9.962097e-01
  9.999000e-01
  9.859979e-01
  8.902057e-01
  4.970786e-01
  1.556544e-01
  9.749908e-02
  2.158811e-01
  6.437824e-01
  8.907591e-01
  9.309999e-01
  8.266655e-01
  4.536637e-01
  1.365063e-01
  6.355681e-02
  1.106227e-01
  4.051727e-01
  8.705516e-01
  9.819096e-01
  9.996593e-01
  9.976089e-01
  9.680092e-01
  8.082513e-01
  2.608321e-01
  6.149184e-02
  2.655623e-02
  3.059658e-02
  5.756829e-02
  4.382476e-02
  6.039220e-02
  6.614227e-02
  6.004510e-02
  5.162687e-02
  6.302647e-02
  1.607486e-01
  5.109457e-01
  8.195312e-01
  9.298630e-01
  9.610748e-01
  9.676554e-01
  9.671550e-01
  9.658906e-01
  9.670267e-01
  9.716830e-01
  9.784031e-01
  9.851000e-01
  9.911410e-01
  9.963101e-01
  9.998975e-01
  9.999000e-01
  9.926171e-01
  9.301150e-01
  6.467039e-01
  1.849784e-01
  5.387452e-02
  2.462939e-02
  1.669964e-02
  1.586856e-02
  2.538061e-02
  6.327736e-02
  1.771541e-01
  4.351974e-01
  7.414348e-01
  8.957884e-01
  9.545512e-01
  9.695923e-01
  9.467091e-01
  8.126388e-01
  3.920335e-01
  1.256085e-01
  7.335376e-02
  1.207723e-01
  3.221674e-01
  5.897046e-01
  6.566058e-01
  4.875101e-01
  2.092020e-01
  7.632531e-02
  4.754375e-02
  9.155363e-02
  3.443334e-01
  8.452594e-01
  9.756479e-01
  9.977098e-01
  9.957266e-01
  9.666835e-01
  8.121944e-01
  2.692721e-01
  5.885983e-02
  2.017634e-02
  1.909314e-02
  2.796992e-02
  2.293184e-02
  2.803978e-02
  3.050476e-02
  3.157424e-02
  3.789479e-02
  7.592461e-02
  2.567358e-01
  7.525528e-01
  9.486137e-01
  9.921585e-01
  9.989340e-01
  9.968177e-01
  9.918271e-01
  9.856500e-01
  9.790248e-01
  9.727105e-01
  9.688452e-01
  9.694377e-01
  9.739855e-01
  9.801931e-01
  9.852476e-01
  9.854661e-01
  9.702485e-01
  8.847950e-01
  5.583937e-01
  1.593542e-01
  4.997976e-02
  2.461485e-02
  1.662714e-02
  1.312242e-02
  1.319214e-02
  2.101747e-02
  4.957629e-02
  1.301150e-01
  3.096179e-01
  5.785403e-01
  7.510275e-01
  7.999396e-01
  7.470075e-01
  5.243000e-01
  2.051660e-01
  7.834107e-02
  5.099448e-02
  6.132975e-02
  1.088762e-01
  1.780565e-01
  1.988786e-01
  1.485097e-01
  7.926608e-02
  4.396809e-02
  3.715321e-02
  7.351309e-02
  2.771966e-01
  7.991893e-01
  9.635479e-01
  9.941105e-01
  9.936104e-01
  9.664881e-01
  8.249131e-01
  3.084411e-01
  6.506075e-02
  1.666704e-02
  1.237043e-02
  1.684113e-02
  1.699078e-02
  2.079078e-02
  2.372992e-02
  2.734976e-02
  3.817847e-02
  8.643412e-02
  3.015493e-01
  8.147887e-01
  9.723804e-01
  9.999000e-01
  9.999000e-01
  9.919578e-01
  9.777383e-01
  9.571579e-01
  9.290033e-01
  8.925963e-01
  8.600546e-01
  8.468598e-01
  8.532822e-01
  8.690874e-01
  8.811908e-01
  8.756276e-01
  8.269462e-01
  6.575893e-01
  3.008546e-01
  9.519954e-02
  3.913912e-02
  2.414136e-02
  1.862412e-02
  1.594863e-02
  1.495257e-02
  1.634253e-02
  2.316211e-02
  4.273531e-02
  8.781813e-02
  1.650705e-01
  2.390614e-01
  2.713544e-01
  2.436318e-01
  1.626152e-01
  8.125933e-02
  4.728589e-02
  3.849328e-02
  4.021257e-02
  4.997992e-02
  6.421271e-02
  7.064106e-02
  6.288181e-02
  4.860252e-02
  3.765176e-02
  3.441748e-02
  5.878460e-02
  2.073222e-01
  6.971523e-01
  9.336224e-01
  9.861091e-01
  9.911443e-01
  9.701321e-01
  8.603779e-01
  4.311528e-01
  1.013691e-01
  2.260861e-02
  1.065712e-02
  1.267481e-02
  1.858843e-02
  2.050504e-02
  2.280498e-02
  2.654188e-02
  3.673496e-02
  7.764267e-02
  2.550317e-01
  7.321843e-01
  9.295692e-01
  9.699906e-01
  9.658645e-01
  9.385819e-01
  8.823483e-01
  7.983118e-01
  6.857706e-01
  5.386455e-01
  4.123158e-01
  3.593650e-01
  3.674219e-01
  4.058668e-01
  4.365473e-01
  4.214331e-01
  3.452797e-01
  2.264842e-01
  1.089006e-01
  5.134121e-02
  3.281007e-02
  2.830585e-02
  2.993892e-02
  3.525025e-02
  4.111444e-02
  4.591542e-02
  5.068900e-02
  5.753276e-02
  6.826680e-02
  8.163619e-02
  8.934123e-02
  8.627113e-02
  7.443562e-02
  5.698065e-02
  4.166770e-02
  3.466118e-02
  3.280997e-02
  3.394645e-02
  3.890984e-02
  5.029858e-02
  6.728308e-02
  7.915368e-02
  7.740408e-02
  6.309178e-02
  4.642971e-02
  5.022476e-02
  1.341647e-01
  4.835559e-01
  8.511848e-01
  9.625106e-01
  9.847853e-01
  9.756283e-01
  9.118791e-01
  6.492968e-01
  2.207859e-01
  6.267071e-02
  2.459982e-02
  1.788459e-02
  4.123312e-02
  3.036733e-02
  2.573419e-02
  2.612039e-02
  3.219086e-02
  5.507108e-02
  1.455019e-01
  4.313201e-01
  7.111549e-01
  7.987257e-01
  7.836727e-01
  6.887979e-01
  4.967893e-01
  3.014990e-01
  1.890731e-01
  1.263396e-01
  9.324400e-02
  8.483054e-02
  9.302860e-02
  1.080197e-01
  1.187106e-01
  1.161755e-01
  9.889251e-02
  7.331620e-02
  4.981404e-02
  3.815255e-02
  3.828852e-02
  5.351939e-02
  8.829761e-02
  1.390991e-01
  1.848103e-01
  2.140646e-01
  2.307083e-01
  2.389670e-01
  2.365156e-01
  2.134193e-01
  1.609922e-01
  9.740749e-02
  5.624405e-02
  3.839515e-02
  3.199363e-02
  3.025290e-02
  3.067163e-02
  3.432255e-02
  4.873179e-02
  9.407839e-02
  1.803788e-01
  2.514442e-01
  2.607061e-01
  2.033056e-01
  1.134408e-01
  6.155846e-02
  8.064344e-02
  2.463978e-01
  6.441769e-01
  8.841779e-01
  9.590440e-01
  9.734252e-01
  9.503212e-01
  8.380156e-01
  5.240393e-01
  2.293137e-01
  1.064788e-01
  6.065114e-02
  1.564754e-01
  7.999125e-02
  4.086509e-02
  2.808689e-02
  2.758002e-02
  3.607425e-02
  6.370132e-02
  1.355757e-01
  2.237397e-01
  2.627015e-01
  2.440035e-01
  1.882216e-01
  1.200034e-01
  6.794687e-02
  4.110332e-02
  2.981771e-02
  2.913615e-02
  3.808606e-02
  5.284871e-02
  6.383600e-02
  6.355779e-02
  5.612185e-02
  4.859170e-02
  4.242987e-02
  3.881871e-02
  4.249002e-02
  6.878336e-02
  1.602806e-01
  3.368629e-01
  5.556431e-01
  7.014359e-01
  7.638511e-01
  7.871151e-01
  7.929244e-01
  7.800839e-01
  7.216706e-01
  5.577387e-01
  3.010106e-01
  1.204418e-01
  5.095734e-02
  3.281442e-02
  2.939628e-02
  3.101117e-02
  4.185442e-02
  9.119603e-02
  2.727485e-01
  5.886097e-01
  7.630355e-01
  7.826917e-01
  6.632148e-01
  3.603266e-01
  1.227852e-01
  6.339844e-02
  1.054980e-01
  2.986050e-01
  6.423216e-01
  8.557776e-01
  9.387983e-01
  9.595057e-01
  9.360989e-01
  8.432577e-01
  6.657721e-01
  4.336890e-01
  2.634171e-01
  5.566398e-01
  2.721593e-01
  9.749598e-02
  3.902188e-02
  2.565687e-02
  2.652851e-02
  3.427525e-02
  4.906913e-02
  6.458980e-02
  6.934253e-02
  6.151129e-02
  4.647318e-02
  3.071379e-02
  1.976277e-02
  1.565862e-02
  1.924828e-02
  3.591744e-02
  7.441530e-02
  1.260476e-01
  1.502545e-01
  1.211154e-01
  7.470544e-02
  4.987476e-02
  4.116741e-02
  4.173663e-02
  6.039082e-02
  1.508701e-01
  4.596475e-01
  7.722477e-01
  8.983626e-01
  9.427850e-01
  9.579008e-01
  9.630812e-01
  9.643993e-01
  9.612408e-01
  9.447616e-01
  8.846941e-01
  6.986096e-01
  3.159291e-01
  9.619360e-02
  4.113139e-02
  3.081041e-02
  3.336593e-02
  5.695822e-02
  1.740209e-01
  5.831672e-01
  8.753439e-01
  9.581527e-01
  9.655603e-01
  9.141472e-01
  6.954171e-01
  2.363933e-01
  7.430353e-02
  5.233890e-02
  9.979145e-02
  2.498755e-01
  5.347106e-01
  7.891605e-01
  9.135583e-01
  9.543811e-01
  9.507827e-01
  9.173469e-01
  8.554960e-01
  7.566159e-01
  8.729750e-01
  6.429331e-01
  2.493531e-01
  7.388267e-02
  3.145622e-02
  2.592578e-02
  2.911178e-02
  3.300914e-02
  3.418957e-02
  3.159846e-02
  2.651301e-02
  2.065624e-02
  1.565086e-02
  1.319669e-02
  1.612752e-02
  3.402317e-02
  9.811810e-02
  2.549752e-01
  4.494291e-01
  5.176905e-01
  3.800328e-01
  1.705333e-01
  7.435574e-02
  4.789262e-02
  4.799956e-02
  8.340260e-02
  2.550628e-01
  7.322097e-01
  9.364076e-01
  9.845869e-01
  9.941616e-01
  9.958591e-01
  9.961651e-01
  9.962754e-01
  9.959566e-01
  9.929420e-01
  9.757386e-01
  8.935396e-01
  5.870620e-01
  1.685067e-01
  5.468623e-02
  3.349242e-02
  3.603818e-02
  7.068742e-02
  2.440467e-01
  7.578238e-01
  9.571426e-01
  9.984730e-01
  9.999000e-01
  9.756472e-01
  8.307184e-01
  3.275239e-01
  9.046527e-02
  3.890895e-02
  3.849966e-02
  7.287183e-02
  1.741844e-01
  4.048372e-01
  7.246526e-01
  9.013025e-01
  9.618071e-01
  9.756015e-01
  9.709038e-01
  9.485037e-01
  9.629173e-01
  8.522171e-01
  5.031968e-01
  1.647894e-01
  6.796755e-02
  5.344837e-02
  5.628322e-02
  5.550473e-02
  4.569643e-02
  3.286263e-02
  2.361098e-02
  1.781712e-02
  1.439611e-02
  1.436771e-02
  2.478667e-02
  7.785723e-02
  2.851437e-01
  6.718166e-01
  8.630350e-01
  8.927262e-01
  7.668853e-01
  3.665028e-01
  1.182733e-01
  5.656598e-02
  5.157698e-02
  9.322062e-02
  2.964190e-01
  7.997526e-01
  9.655808e-01
  9.970499e-01
  9.999000e-01
  9.999000e-01
  9.999000e-01
  9.999000e-01
  9.999000e-01
  9.999000e-01
  9.946654e-01
  9.469797e-01
  7.186829e-01
  2.164241e-01
  6.431930e-02
  3.557385e-02
  3.715011e-02
  7.363315e-02
  2.561688e-01
  7.780780e-01
  9.639311e-01
  9.999000e-01
  9.999000e-01
  9.795339e-01
  8.439088e-01
  3.423503e-01
  9.345522e-02
  3.594576e-02
  2.410226e-02
  2.707109e-02
  5.022064e-02
  1.281901e-01
  3.467288e-01
  7.069117e-01
  9.058451e-01
  9.715200e-01
  9.895556e-01
  9.888933e-01
  9.704801e-01
  9.150409e-01
  7.265760e-01
  3.859287e-01
  2.347825e-01
  2.140761e-01
  2.195193e-01
  1.981761e-01
  1.351443e-01
  6.842402e-02
  3.376603e-02
  2.041445e-02
  1.544778e-02
  1.717640e-02
  4.053420e-02
  1.607612e-01
  5.769344e-01
  8.892753e-01
  9.761829e-01
  9.804340e-01
  8.883578e-01
  4.968616e-01
  1.464998e-01
  5.965992e-02
  4.912564e-02
  8.103456e-02
  2.418635e-01
  7.025290e-01
  9.193482e-01
  9.731915e-01
  9.858014e-01
  9.904136e-01
  9.932214e-01
  9.954100e-01
  9.972251e-01
  9.976588e-01
  9.889766e-01
  9.323037e-01
  6.835445e-01
  2.041271e-01
  6.290995e-02
  3.616575e-02
  3.680880e-02
  6.467128e-02
  2.037754e-01
  6.581065e-01
  9.089875e-01
  9.715345e-01
  9.763808e-01
  9.379565e-01
  7.528643e-01
  2.721591e-01
  7.924492e-02
  3.392994e-02
  2.202925e-02
  1.824533e-02
  2.095926e-02
  4.088006e-02
  1.167828e-01
  3.443031e-01
  7.102277e-01
  9.018259e-01
  9.649464e-01
  9.805161e-01
  8.942582e-01
  8.607291e-01
  7.888348e-01
  7.042635e-01
  6.985636e-01
  7.351074e-01
  7.523712e-01
  6.926266e-01
  4.797873e-01
  2.033758e-01
  6.670654e-02
  2.735927e-02
  1.714586e-02
  2.103864e-02
  6.410398e-02
  2.732591e-01
  7.704832e-01
  9.561853e-01
  9.949404e-01
  9.832725e-01
  8.753774e-01
  4.524358e-01
  1.296265e-01
  5.308620e-02
  4.230257e-02
  5.749218e-02
  1.340404e-01
  3.929611e-01
  7.029573e-01
  8.414478e-01
  9.015688e-01
  9.340865e-01
  9.519306e-01
  9.618992e-01
  9.667831e-01
  9.636343e-01
  9.348946e-01
  8.160443e-01
  4.684732e-01
  1.395163e-01
  5.345163e-02
  3.867397e-02
  4.054455e-02
  5.531178e-02
  1.215572e-01
  3.605726e-01
  6.824486e-01
  8.156537e-01
  8.307235e-01
  7.454720e-01
  4.712780e-01
  1.615282e-01
  6.148801e-02
  3.503227e-02
  2.497776e-02
  1.924544e-02
  1.666652e-02
  2.002388e-02
  4.095406e-02
  1.170493e-01
  3.266731e-01
  6.470778e-01
  8.247872e-01
  8.881763e-01
  5.415122e-01
  5.346840e-01
  5.728358e-01
  7.224021e-01
  8.687247e-01
  9.319741e-01
  9.530467e-01
  9.365992e-01
  8.278826e-01
  4.827690e-01
  1.336339e-01
  3.931594e-02
  1.952689e-02
  2.738423e-02
  1.026100e-01
  4.331533e-01
  8.613260e-01
  9.736119e-01
  9.875115e-01
  9.481732e-01
  7.633672e-01
  2.974696e-01
  8.786300e-02
  4.262476e-02
  3.633988e-02
  4.093279e-02
  6.204490e-02
  1.274865e-01
  2.422410e-01
  3.834743e-01
  5.468814e-01
  6.765313e-01
  7.496328e-01
  7.864801e-01
  8.004602e-01
  7.845945e-01
  6.979719e-01
  4.670083e-01
  1.999865e-01
  7.740239e-02
  5.226706e-02
  6.053050e-02
  7.336306e-02
  7.976325e-02
  8.970375e-02
  1.382191e-01
  2.332001e-01
  3.072489e-01
  3.217953e-01
  2.689936e-01
  1.727220e-01
  9.897535e-02
  7.255480e-02
  5.719962e-02
  4.065198e-02
  2.721760e-02
  1.978580e-02
  1.757443e-02
  2.186336e-02
  4.133903e-02
  9.785785e-02
  2.138574e-01
  3.642161e-01
  4.944768e-01
  1.337147e-01
  1.394629e-01
  2.143872e-01
  5.118710e-01
  8.613619e-01
  9.682388e-01
  9.949992e-01
  9.931952e-01
  9.403468e-01
  6.941873e-01
  1.968266e-01
  5.004547e-02
  2.226999e-02
  3.886634e-02
  1.644061e-01
  6.211477e-01
  9.126140e-01
  9.742302e-01
  9.598781e-01
  8.488988e-01
  5.056904e-01
  1.547044e-01
  5.473542e-02
  3.728090e-02
  3.631881e-02
  3.685469e-02
  3.906603e-02
  4.843209e-02
  6.733938e-02
  9.508754e-02
  1.335733e-01
  1.748404e-01
  2.103404e-01
  2.374861e-01
  2.522821e-01
  2.451852e-01
  2.049538e-01
  1.345090e-01
  7.484856e-02
  5.929250e-02
  9.361599e-02
  1.757269e-01
  2.430376e-01
  2.468889e-01
  1.879875e-01
  1.161006e-01
  9.045372e-02
  9.200058e-02
  9.569014e-02
  9.914829e-02
  1.211394e-01
  1.712629e-01
  2.039396e-01
  1.806847e-01
  1.149937e-01
  5.787914e-02
  3.027231e-02
  2.099611e-02
  1.950302e-02
  2.358371e-02
  3.624386e-02
  6.146885e-02
  9.548016e-02
  1.247275e-01
  3.647822e-02
  3.981477e-02
  8.597734e-02
  3.093492e-01
  7.907263e-01
  9.610037e-01
  9.994838e-01
  9.999000e-01
  9.535634e-01
  7.241051e-01
  2.068329e-01
  5.155384e-02
  2.624511e-02
  6.278504e-02
  2.651357e-01
  7.578244e-01
  9.394889e-01
  9.611632e-01
  8.908928e-01
  6.245206e-01
  2.309091e-01
  7.370392e-02
  4.447724e-02
  4.903548e-02
  5.455595e-02
  5.035826e-02
  4.100075e-02
  3.424211e-02
  3.174529e-02
  3.253855e-02
  3.669778e-02
  4.337307e-02
  5.099271e-02
  5.812835e-02
  6.298829e-02
  6.325827e-02
  5.734002e-02
  4.793802e-02
  4.802654e-02
  8.950300e-02
  2.613762e-01
  5.786010e-01
  7.523604e-01
  7.533739e-01
  5.828620e-01
  2.674434e-01
  9.576702e-02
  5.340927e-02
  5.490447e-02
  9.989603e-02
  2.641560e-01
  5.337042e-01
  6.775103e-01
  6.309306e-01
  4.067702e-01
  1.723808e-01
  6.082658e-02
  2.928589e-02
  2.204415e-02
  2.167412e-02
  2.440945e-02
  2.939415e-02
  3.489125e-02
  3.778638e-02
  2.201365e-02
  2.300589e-02
  4.945534e-02
  1.874842e-01
  6.296054e-01
  9.014944e-01
  9.718193e-01
  9.708076e-01
  8.915651e-01
  5.828248e-01
  1.582283e-01
  4.466440e-02
  3.828068e-02
  1.240766e-01
  4.586644e-01
  8.517069e-01
  9.506807e-01
  9.270119e-01
  7.410410e-01
  3.172577e-01
  9.722018e-02
  5.219633e-02
  7.553875e-02
  1.245581e-01
  1.506579e-01
  1.240362e-01
  7.504182e-02
  4.288756e-02
  2.955633e-02
  2.445907e-02
  2.318284e-02
  2.456451e-02
  2.770421e-02
  3.078676e-02
  3.208976e-02
  3.153640e-02
  3.066418e-02
  3.303132e-02
  5.336996e-02
  1.592006e-01
  5.501655e-01
  8.681946e-01
  9.568260e-01
  9.564092e-01
  8.666831e-01
  5.474157e-01
  1.602144e-01
  5.985329e-02
  6.299755e-02
  1.754558e-01
  5.730624e-01
  8.581664e-01
  9.357294e-01
  9.207603e-01
  7.972399e-01
  4.520566e-01
  1.322841e-01
  4.501639e-02
  2.717117e-02
  2.506154e-02
  2.685838e-02
  2.878606e-02
  2.863456e-02
  2.581455e-02
  2.970472e-02
  2.397230e-02
  3.450819e-02
  9.707456e-02
  3.258613e-01
  6.714071e-01
  8.150807e-01
  8.093872e-01
  6.479200e-01
  2.935655e-01
  8.713293e-02
  4.201192e-02
  8.005066e-02
  2.758170e-01
  7.072620e-01
  9.187365e-01
  9.500233e-01
  8.612378e-01
  4.986596e-01
  1.471358e-01
  5.729119e-02
  8.345856e-02
  2.255045e-01
  4.319839e-01
  5.264355e-01
  4.175526e-01
  2.095779e-01
  7.878077e-02
  3.810179e-02
  2.763626e-02
  2.706180e-02
  3.301381e-02
  4.393703e-02
  5.217196e-02
  5.018797e-02
  4.052165e-02
  3.260424e-02
  3.369616e-02
  6.206080e-02
  2.114847e-01
  7.109763e-01
  9.484490e-01
  9.999000e-01
  9.997651e-01
  9.479576e-01
  7.118017e-01
  2.143016e-01
  7.135038e-02
  7.851717e-02