# vtk DataFile Version 2.0
time_10.vtk
ASCII
DATASET STRUCTURED_GRID
DIMENSIONS    64    64     1
POINTS    4096 float
  0.000000e+00   0.000000e+00   0.000000e+00
  0.000000e+00   1.000000e+00   0.000000e+00
  0.000000e+00   2.000000e+00   0.000000e+00
  0.000000e+00   3.000000e+00   0.000000e+00
  0.000000e+00   4.000000e+00   0.000000e+00
  0.000000e+00   5.000000e+00   0.000000e+00
  0.000000e+00   6.000000e+00   0.000000e+00
  0.000000e+00   7.000000e+00   0.000000e+00
  0.000000e+00   8.000000e+00   0.000000e+00
  0.000000e+00   9.000000e+00   0.000000e+00
  0.000000e+00   1.000000e+01   0.000000e+00
  0.000000e+00   1.100000e+01   0.000000e+00
  0.000000e+00   1.200000e+01   0.000000e+00
  0.000000e+00   1.300000e+01   0.000000e+00
  0.000000e+00   1.400000e+01   0.000000e+00
  0.000000e+00   1.500000e+01   0.000000e+00
  0.000000e+00   1.600000e+01   0.000000e+00
  0.000000e+00   1.700000e+01   0.000000e+00
  0.000000e+00   1.800000e+01   0.000000e+00
  0.000000e+00   1.900000e+01   0.000000e+00
  0.000000e+00   2.000000e+01   0.000000e+00
  0.000000e+00   2.100000e+01   0.000000e+00
  0.000000e+00   2.200000e+01   0.000000e+00
  0.000000e+00   2.300000e+01   0.000000e+00
  0.000000e+00   2.400000e+01   0.000000e+00
  0.000000e+00   2.500000e+01   0.000000e+00
  0.000000e+00   2.600000e+01   0.000000e+00
  0.000000e+00   2.700000e+01   0.000000e+00
  0.000000e+00   2.800000e+01   0.000000e+00
  0.000000e+00   2.900000e+01   0.000000e+00
  0.000000e+00   3.000000e+01   0.000000e+00
  0.000000e+00   3.100000e+01   0.000000e+00
  0.000000e+00   3.200000e+01   0.000000e+00
  0.000000e+00   3.300000e+01   0.000000e+00
  0.000000e+00   3.400000e+01   0.000000e+00
  0.000000e+00   3.500000e+01   0.000000e+00
  0.000000e+00   3.600000e+01   0.000000e+00
  0.000000e+00   3.700000e+01   0.000000e+00
  0.000000e+00   3.800000e+01   0.000000e+00
  0.000000e+00   3.900000e+01   0.000000e+00
  0.000000e+00   4.000000e+01   0.000000e+00
  0.000000e+00   4.100000e+01   0.000000e+00
  0.000000e+00   4.200000e+01   0.000000e+00
  0.000000e+00   4.300000e+01   0.000000e+00
  0.000000e+00   4.400000e+01   0.000000e+00
  0.000000e+00   4.500000e+01   0.000000e+00
  0.000000e+00   4.600000e+01   0.000000e+00
  0.000000e+00   4.700000e+01   0.000000e+00
  0.000000e+00   4.800000e+01   0.000000e+00
  0.000000e+00   4.900000e+01   0.000000e+00
  0.000000e+00   5.000000e+01   0.000000e+00
  0.000000e+00   5.100000e+01   0.000000e+00
  0.000000e+00   5.200000e+01   0.000000e+00
  0.000000e+00   5.300000e+01   0.000000e+00
  0.000000e+00   5.400000e+01   0.000000e+00
  0.000000e+00   5.500000e+01   0.000000e+00
  0.000000e+00   5.600000e+01   0.000000e+00
  0.000000e+00   5.700000e+01   0.000000e+00
  0.000000e+00   5.800000e+01   0.000000e+00
  0.000000e+00   5.900000e+01   0.000000e+00
  0.000000e+00   6.000000e+01   0.000000e+00
  0.000000e+00   6.100000e+01   0.000000e+00
  0.000000e+00   6.200000e+01   0.000000e+00
  0.000000e+00   6.300000e+01   0.000000e+00
  1.000000e+00   0.000000e+00   0.000000e+00
  1.000000e+00   1.000000e+00   0.000000e+00
  1.000000e+00   2.000000e+00   0.000000e+00
  1.000000e+00   3.000000e+00   0.000000e+00
  1.000000e+00   4.000000e+00   0.000000e+00
  1.000000e+00   5.000000e+00   0.000000e+00
  1.000000e+00   6.000000e+00   0.000000e+00
  1.000000e+00   7.000000e+00   0.000000e+00
  1.000000e+00   8.000000e+00   0.000000e+00
  1.000000e+00   9.000000e+00   0.000000e+00
  1.000000e+00   1.000000e+01   0.000000e+00
  1.000000e+00   1.100000e+01   0.000000e+00
  1.000000e+00   1.200000e+01   0.000000e+00
  1.000000e+00   1.300000e+01   0.000000e+00
  1.000000e+00   1.400000e+01   0.000000e+00
  1.000000e+00   1.500000e+01   0.000000e+00
  1.000000e+00   1.600000e+01   0.000000e+00
  1.000000e+00   1.700000e+01   0.000000e+00
  1.000000e+00   1.800000e+01   0.000000e+00
  1.000000e+00   1.900000e+01   0.000000e+00
  1.000000e+00   2.000000e+01   0.000000e+00
  1.000000e+00   2.100000e+01   0.000000e+00
  1.000000e+00   2.200000e+01   0.000000e+00
  1.000000e+00   2.300000e+01   0.000000e+00
  1.000000e+00   2.400000e+01   0.000000e+00
  1.000000e+00   2.500000e+01   0.000000e+00
  1.000000e+00   2.600000e+01   0.000000e+00
  1.000000e+00   2.700000e+01   0.000000e+00
  1.000000e+00   2.800000e+01   0.000000e+00
  1.000000e+00   2.900000e+01   0.000000e+00
  1.000000e+00   3.000000e+01   0.000000e+00
  1.000000e+00   3.100000e+01   0.000000e+00
  1.000000e+00   3.200000e+01   0.000000e+00
  1.000000e+00   3.300000e+01   0.000000e+00
  1.000000e+00   3.400000e+01   0.000000e+00
  1.000000e+00   3.500000e+01   0.000000e+00
  1.000000e+00   3.600000e+01   0.000000e+00
  1.000000e+00   3.700000e+01   0.000000e+00
  1.000000e+00   3.800000e+01   0.000000e+00
  1.000000e+00   3.900000e+01   0.000000e+00
  1.000000e+00   4.000000e+01   0.000000e+00
  1.000000e+00   4.100000e+01   0.000000e+00
  1.000000e+00   4.200000e+01   0.000000e+00
  1.000000e+00   4.300000e+01   0.000000e+00
  1.000000e+00   4.400000e+01   0.000000e+00
  1.000000e+00   4.500000e+01   0.000000e+00
  1.000000e+00   4.600000e+01   0.000000e+00
  1.000000e+00   4.700000e+01   0.000000e+00
  1.000000e+00   4.800000e+01   0.000000e+00
  1.000000e+00   4.900000e+01   0.000000e+00
  1.000000e+00   5.000000e+01   0.000000e+00
  1.000000e+00   5.100000e+01   0.000000e+00
  1.000000e+00   5.200000e+01   0.000000e+00
  1.000000e+00   5.300000e+01   0.000000e+00
  1.000000e+00   5.400000e+01   0.000000e+00
  1.000000e+00   5.500000e+01   0.000000e+00
  1.000000e+00   5.600000e+01   0.000000e+00
  1.000000e+00   5.700000e+01   0.000000e+00
  1.000000e+00   5.800000e+01   0.000000e+00
  1.000000e+00   5.900000e+01   0.000000e+00
  1.000000e+00   6.000000e+01   0.000000e+00
  1.000000e+00   6.100000e+01   0.000000e+00
  1.000000e+00   6.200000e+01   0.000000e+00
  1.000000e+00   6.300000e+01   0.000000e+00
  2.000000e+00   0.000000e+00   0.000000e+00
  2.000000e+00   1.000000e+00   0.000000e+00
  2.000000e+00   2.000000e+00   0.000000e+00
  2.000000e+00   3.000000e+00   0.000000e+00
  2.000000e+00   4.000000e+00   0.000000e+00
  2.000000e+00   5.000000e+00   0.000000e+00
  2.000000e+00   6.000000e+00   0.000000e+00
  2.000000e+00   7.000000e+00   0.000000e+00
  2.000000e+00   8.000000e+00   0.000000e+00
  2.000000e+00   9.000000e+00   0.000000e+00
  2.000000e+00   1.000000e+01   0.000000e+00
  2.000000e+00   1.100000e+01   0.000000e+00
  2.000000e+00   1.200000e+01   0.000000e+00
  2.000000e+00   1.300000e+01   0.000000e+00
  2.000000e+00   1.400000e+01   0.000000e+00
  2.000000e+00   1.500000e+01   0.000000e+00
  2.000000e+00   1.600000e+01   0.000000e+00
  2.000000e+00   1.700000e+01   0.000000e+00
  2.000000e+00   1.800000e+01   0.000000e+00
  2.000000e+00   1.900000e+01   0.000000e+00
  2.000000e+00   2.000000e+01   0.000000e+00
  2.000000e+00   2.100000e+01   0.000000e+00
  2.000000e+00   2.200000e+01   0.000000e+00
  2.000000e+00   2.300000e+01   0.000000e+00
  2.000000e+00   2.400000e+01   0.000000e+00
  2.000000e+00   2.500000e+01   0.000000e+00
  2.000000e+00   2.600000e+01   0.000000e+00
  2.000000e+00   2.700000e+01   0.000000e+00
  2.000000e+00   2.800000e+01   0.000000e+00
  2.000000e+00   2.900000e+01   0.000000e+00
  2.000000e+00   3.000000e+01   0.000000e+00
  2.000000e+00   3.100000e+01   0.000000e+00
  2.000000e+00   3.200000e+01   0.000000e+00
  2.000000e+00   3.300000e+01   0.000000e+00
  2.000000e+00   3.400000e+01   0.000000e+00
  2.000000e+00   3.500000e+01   0.000000e+00
  2.000000e+00   3.600000e+01   0.000000e+00
  2.000000e+00   3.700000e+01   0.000000e+00
  2.000000e+00   3.800000e+01   0.000000e+00
  2.000000e+00   3.900000e+01   0.000000e+00
  2.000000e+00   4.000000e+01   0.000000e+00
  2.000000e+00   4.100000e+01   0.000000e+00
  2.000000e+00   4.200000e+01   0.000000e+00
  2.000000e+00   4.300000e+01   0.000000e+00
  2.000000e+00   4.400000e+01   0.000000e+00
  2.000000e+00   4.500000e+01   0.000000e+00
  2.000000e+00   4.600000e+01   0.000000e+00
  2.000000e+00   4.700000e+01   0.000000e+00
  2.000000e+00   4.800000e+01   0.000000e+00
  2.000000e+00   4.900000e+01   0.000000e+00
  2.000000e+00   5.000000e+01   0.000000e+00
  2.000000e+00   5.100000e+01   0.000000e+00
  2.000000e+00   5.200000e+01   0.000000e+00
  2.000000e+00   5.300000e+01   0.000000e+00
  2.000000e+00   5.400000e+01   0.000000e+00
  2.000000e+00   5.500000e+01   0.000000e+00
  2.000000e+00   5.600000e+01   0.000000e+00
  2.000000e+00   5.700000e+01   0.000000e+00
  2.000000e+00   5.800000e+01   0.000000e+00
  2.000000e+00   5.900000e+01   0.000000e+00
  2.000000e+00   6.000000e+01   0.000000e+00
  2.000000e+00   6.100000e+01   0.000000e+00
  2.000000e+00   6.200000e+01   0.000000e+00
  2.000000e+00   6.300000e+01   0.000000e+00
  3.000000e+00   0.000000e+00   0.000000e+00
  3.000000e+00   1.000000e+00   0.000000e+00
  3.000000e+00   2.000000e+00   0.000000e+00
  3.000000e+00   3.000000e+00   0.000000e+00
  3.000000e+00   4.000000e+00   0.000000e+00
  3.000000e+00   5.000000e+00   0.000000e+00
  3.000000e+00   6.000000e+00   0.000000e+00
  3.000000e+00   7.000000e+00   0.000000e+00
  3.000000e+00   8.000000e+00   0.000000e+00
  3.000000e+00   9.000000e+00   0.000000e+00
  3.000000e+00   1.000000e+01   0.000000e+00
  3.000000e+00   1.100000e+01   0.000000e+00
  3.000000e+00   1.200000e+01   0.000000e+00
  3.000000e+00   1.300000e+01   0.000000e+00
  3.000000e+00   1.400000e+01   0.000000e+00
  3.000000e+00   1.500000e+01   0.000000e+00
  3.000000e+00   1.600000e+01   0.000000e+00
  3.000000e+00   1.700000e+01   0.000000e+00
  3.000000e+00   1.800000e+01   0.000000e+00
  3.000000e+00   1.900000e+01   0.000000e+00
  3.000000e+00   2.000000e+01   0.000000e+00
  3.000000e+00   2.100000e+01   0.000000e+00
  3.000000e+00   2.200000e+01   0.000000e+00
  3.000000e+00   2.300000e+01   0.000000e+00
  3.000000e+00   2.400000e+01   0.000000e+00
  3.000000e+00   2.500000e+01   0.000000e+00
  3.000000e+00   2.600000e+01   0.000000e+00
[...]
POINT_DATA  4096
SCALARS CON float 1
LOOKUP_TABLE default
  1.784507e-01
  3.219115e-01
  7.035117e-01
  8.885870e-01
  9.347739e-01
  9.153852e-01
  8.284499e-01
  6.467972e-01
  4.113910e-01
  2.987651e-01
  2.824101e-01
  2.603809e-01
  1.791849e-01
  9.810002e-02
  6.635931e-02
  6.759686e-02
  8.469924e-02
  9.760629e-02
  9.243999e-02
  7.132399e-02
  4.943646e-02
  4.028148e-02
  4.292484e-02
  5.407266e-02
  7.487540e-02
  1.066973e-01
  1.543209e-01
  2.573531e-01
  5.091924e-01
  8.029081e-01
  9.217036e-01
  9.505187e-01
  9.389599e-01
  8.779001e-01
  7.134153e-01
  3.984235e-01
  1.647225e-01
  7.979308e-02
  6.341491e-02
  6.311393e-02
  5.795001e-02
  4.846830e-02
  5.324514e-02
  1.100077e-01
  3.124407e-01
  5.944396e-01
  7.020573e-01
  6.058473e-01
  3.255794e-01
  1.165627e-01
  5.609125e-02
  5.251278e-02
  1.189033e-01
  4.281551e-01
  8.494394e-01
  9.586296e-01
  9.395406e-01
  7.484884e-01
  2.615211e-01
  1.020263e-01
  8.817185e-02
  1.203926e-01
  1.600048e-01
  1.692793e-01
  3.152312e-01
  2.467035e-01
  3.844284e-01
  5.933166e-01
  6.821758e-01
  6.188504e-01
  4.160131e-01
  2.204527e-01
  1.159095e-01
  8.301192e-02
  8.242640e-02
  8.222896e-02
  6.817006e-02
  5.168498e-02
  4.631610e-02
  5.373261e-02
  6.887744e-02
  7.753399e-02
  7.008240e-02
  5.289436e-02
  4.118558e-02
  4.300636e-02
  5.936455e-02
  8.201137e-02
  9.608593e-02
  9.311867e-02
  8.441698e-02
  1.093245e-01
  2.517915e-01
  6.080260e-01
  8.615260e-01
  9.492841e-01
  9.718549e-01
  9.634865e-01
  9.132990e-01
  7.609911e-01
  4.470628e-01
  1.894753e-01
  8.176463e-02
  4.581664e-02
  3.508858e-02
  3.683545e-02
  6.625397e-02
  2.098497e-01
  6.517454e-01
  8.932027e-01
  9.452639e-01
  8.940694e-01
  6.490629e-01
  2.037148e-01
  6.468008e-02
  5.035092e-02
  1.407112e-01
  5.468199e-01
  8.978018e-01
  9.725342e-01
  9.431334e-01
  7.361976e-01
  2.351828e-01
  9.033989e-02
  1.065113e-01
  2.327833e-01
  3.904546e-01
  4.174558e-01
  6.495555e-01
  2.840962e-01
  1.647016e-01
  1.788986e-01
  1.967924e-01
  1.720712e-01
  1.155127e-01
  7.026329e-02
  5.150820e-02
  5.053191e-02
  5.358840e-02
  5.186269e-02
  4.652693e-02
  4.699093e-02
  6.565232e-02
  1.130934e-01
  1.789805e-01
  2.100383e-01
  1.775866e-01
  1.115292e-01
  7.429407e-02
  8.965133e-02
  1.639208e-01
  2.569717e-01
  2.991124e-01
  2.544424e-01
  1.525603e-01
  8.620127e-02
  1.105401e-01
  2.731657e-01
  5.895660e-01
  8.134478e-01
  9.133677e-01
  9.508637e-01
  9.550720e-01
  9.181332e-01
  7.950870e-01
  5.365880e-01
  2.633993e-01
  1.211384e-01
  6.157204e-02
  4.664142e-02
  8.443363e-02
  2.914976e-01
  8.052721e-01
  9.707862e-01
  9.985459e-01
  9.692484e-01
  7.951525e-01
  2.716227e-01
  7.698006e-02
  5.441753e-02
  1.612518e-01
  6.219694e-01
  9.155372e-01
  9.684690e-01
  9.147916e-01
  6.313193e-01
  1.781303e-01
  8.248893e-02
  1.704391e-01
  5.304114e-01
  7.986325e-01
  8.254365e-01
  8.267365e-01
  3.670817e-01
  1.191906e-01
  6.805665e-02
  6.118031e-02
  5.842843e-02
  5.934261e-02
  7.289325e-02
  9.919790e-02
  1.264067e-01
  1.325511e-01
  1.146692e-01
  9.816103e-02
  1.158135e-01
  2.034449e-01
  3.903560e-01
  6.114770e-01
  6.903218e-01
  5.982428e-01
  3.710162e-01
  2.290993e-01
  2.845911e-01
  5.372130e-01
  7.502428e-01
  8.092799e-01
  7.297923e-01
  4.407054e-01
  1.487029e-01
  7.185449e-02
  9.491033e-02
  2.012784e-01
  3.999840e-01
  6.485543e-01
  8.089758e-01
  8.995472e-01
  9.374678e-01
  9.276022e-01
  8.561800e-01
  6.918679e-01
  4.194014e-01
  2.006171e-01
  9.575549e-02
  1.042830e-01
  3.139504e-01
  8.213624e-01
  9.754286e-01
  9.999000e-01
  9.718132e-01
  8.009290e-01
  2.751786e-01
  7.787396e-02
  5.567185e-02
  1.662208e-01
  6.338632e-01
  9.158989e-01
  9.590566e-01
  8.718146e-01
  4.752216e-01
  1.237465e-01
  7.812383e-02
  2.325408e-01
  7.376579e-01
  9.413055e-01
  9.573869e-01
  8.675666e-01
  4.044403e-01
  1.160863e-01
  5.032751e-02
  4.295252e-02
  6.226670e-02
  1.240894e-01
  2.356809e-01
  3.693255e-01
  4.796460e-01
  4.980984e-01
  4.298785e-01
  3.686384e-01
  4.192120e-01
  6.149830e-01
  8.055030e-01
  9.063974e-01
  9.310370e-01
  8.862461e-01
  7.425700e-01
  5.644308e-01
  6.281059e-01
  8.327531e-01
  9.406754e-01
  9.692199e-01
  9.324155e-01
  7.285072e-01
  2.477083e-01
  7.768645e-02
  4.748264e-02
  6.136341e-02
  1.081072e-01
  2.020563e-01
  3.740173e-01
  6.398866e-01
  8.373985e-01
  9.295141e-01
  9.492563e-01
  9.192191e-01
  8.165339e-01
  5.742759e-01
  2.477275e-01
  1.367344e-01
  2.677193e-01
  7.170910e-01
  9.202304e-01
  9.591750e-01
  9.094448e-01
  6.709059e-01
  2.100538e-01
  6.452332e-02
  5.061805e-02
  1.475841e-01
  5.690169e-01
  8.969065e-01
  9.482185e-01
  8.377625e-01
  3.688009e-01
  9.276843e-02
  7.153460e-02
  2.429147e-01
  7.729185e-01
  9.634731e-01
  9.807874e-01
  8.026324e-01
  3.408147e-01
  1.034056e-01
  5.180890e-02
  6.321424e-02
  1.549243e-01
  4.043989e-01
  6.980324e-01
  8.374233e-01
  8.864607e-01
  8.851480e-01
  8.455056e-01
  7.939263e-01
  7.905822e-01
  8.594057e-01
  9.304003e-01
  9.673267e-01
  9.700833e-01
  9.264187e-01
  7.914985e-01
  6.030661e-01
  6.569593e-01
  8.570656e-01
  9.598293e-01
  9.904060e-01
  9.684337e-01
  8.049041e-01
  2.931004e-01
  8.564833e-02
  3.985487e-02
  3.227489e-02
  3.705153e-02
  5.470280e-02
  1.023282e-01
  2.323147e-01
  5.216882e-01
  8.163982e-01
  9.405673e-01
  9.719587e-01
  9.532584e-01
  8.408146e-01
  4.867652e-01
  1.816355e-01
  1.737453e-01
  4.110868e-01
  6.832037e-01
  7.605982e-01
  6.571770e-01
  3.503124e-01
  1.132913e-01
  4.530618e-02
  4.110294e-02
  1.107138e-01
  4.312238e-01
  8.518428e-01
  9.366218e-01
  8.310971e-01
  3.606607e-01
  8.861920e-02
  6.040263e-02
  1.915939e-01
  6.537369e-01
  9.059445e-01
  9.390808e-01
  5.340332e-01
  2.027508e-01
  7.842858e-02
  5.980581e-02
  1.179838e-01
  3.766321e-01
  7.673615e-01
  9.277602e-01
  9.727607e-01
  9.797789e-01
  9.647962e-01
  9.208161e-01
  8.441471e-01
  7.876427e-01
  8.167589e-01
  8.842630e-01
  9.248210e-01
  9.133012e-01
  8.105994e-01
  5.480616e-01
  3.019099e-01
  3.485495e-01
  6.513630e-01
  8.674309e-01
  9.399879e-01
  9.150275e-01
  7.134348e-01
  2.463967e-01
  7.778430e-02
  3.951430e-02
  3.106353e-02
  2.968961e-02
  3.118332e-02
  3.917307e-02
  7.438788e-02
  2.018762e-01
  5.284677e-01
  8.352347e-01
  9.491791e-01
  9.694586e-01
  9.029827e-01
  5.985020e-01
  1.983803e-01
  1.033732e-01
  1.409228e-01
  2.204599e-01
  2.551313e-01
  2.117966e-01
  1.199274e-01
  5.724082e-02
  3.409863e-02
  3.299405e-02
  7.516307e-02
  2.889352e-01
  7.752284e-01
  9.219896e-01
  8.542945e-01
  4.568575e-01
  1.145864e-01
  5.026634e-02
  1.054640e-01
  3.411275e-01
  6.498842e-01
  7.200331e-01
  1.787173e-01
  9.280435e-02
  5.914744e-02
  7.097966e-02
  1.868379e-01
  6.125235e-01
  9.106027e-01
  9.855162e-01
  9.969086e-01
  9.854239e-01
  9.417653e-01
  8.207091e-01
  5.943256e-01
  4.118311e-01
  4.237939e-01
  5.658095e-01
  6.712858e-01
  6.422275e-01
  4.448004e-01
  2.113208e-01
  1.032115e-01
  1.175369e-01
  2.648890e-01
  5.297075e-01
  6.942172e-01
  6.554951e-01
  3.961673e-01
  1.398231e-01
  5.869674e-02
  4.033641e-02
  4.008440e-02
  4.736566e-02
  5.450019e-02
  5.386208e-02
  5.303299e-02
  8.374283e-02
  2.215561e-01
  5.416143e-01
  7.945316e-01
  8.699737e-01
  7.958981e-01
  4.693426e-01
  1.559923e-01
  7.097843e-02
  6.264633e-02
  7.597189e-02
  8.754317e-02
  8.610413e-02
  7.142850e-02
  5.376411e-02
  3.909214e-02
  3.234027e-02
  5.264852e-02
  1.883716e-01
  6.494076e-01
  8.973979e-01
  8.924551e-01
  6.300855e-01
  1.853514e-01
  5.545948e-02
  5.208171e-02
  1.115569e-01
  2.048813e-01
  2.385731e-01
  7.395631e-02
  5.922789e-02
  5.399849e-02
  7.602115e-02
  2.066662e-01
  6.553279e-01
  9.216635e-01
  9.813166e-01
  9.801202e-01
  9.393709e-01
  8.074654e-01
  4.978753e-01
  2.101439e-01
  1.073494e-01
  1.048091e-01
  1.502083e-01
  1.975220e-01
  2.044392e-01
  1.607292e-01
  1.053991e-01
  7.318525e-02
  6.663006e-02
  9.337953e-02
  1.583245e-01
  2.128911e-01
  2.016712e-01
  1.294510e-01
  6.768257e-02
  4.635673e-02
  4.771714e-02
  7.000978e-02
  1.211796e-01
  1.763131e-01
  1.821227e-01
  1.390677e-01
  9.524548e-02
  1.019316e-01
  1.930992e-01
  3.469079e-01
  4.524598e-01
  3.889005e-01
  2.068996e-01
  8.956794e-02
  5.204038e-02
  4.533936e-02
  5.429487e-02
  8.056691e-02
  1.192867e-01
  1.438316e-01
  1.304862e-01
  9.114283e-02
  5.560990e-02
  4.769850e-02
  1.236110e-01
  4.740384e-01
  8.576821e-01
  9.222130e-01
  7.829172e-01
  3.307870e-01
  8.786576e-02
  3.937799e-02
  4.581649e-02
  6.745378e-02
  8.041332e-02
  7.860019e-02
  7.640684e-02
  6.666397e-02
  7.372794e-02
  1.569504e-01
  4.693677e-01
  7.868663e-01
  8.818958e-01
  8.663787e-01
  7.488143e-01
  4.638569e-01
  1.846592e-01
  6.728261e-02
  3.535715e-02
  3.555948e-02
  5.041006e-02
  7.477397e-02
  1.146398e-01
  1.747014e-01
  2.137709e-01
  2.015826e-01
  1.478594e-01
  9.228713e-02
  7.176440e-02
  7.169016e-02
  6.838850e-02
  5.728778e-02
  4.929055e-02
  5.326307e-02
  8.046986e-02
  1.701467e-01
  3.806733e-01
  5.979151e-01
  6.379594e-01
  5.029580e-01
  2.914988e-01
  1.501633e-01
  1.016955e-01
  1.137471e-01
  1.359720e-01
  1.230625e-01
  8.263993e-02
  5.339528e-02
  4.207315e-02
  4.576293e-02
  7.989617e-02
  1.915390e-01
  3.687440e-01
  4.926915e-01
  4.683260e-01
  3.259642e-01
  1.719492e-01
  8.013875e-02
  9.764231e-02
  3.377650e-01
  8.143583e-01
  9.389857e-01
  8.859855e-01
  5.688099e-01
  1.591048e-01
  4.996748e-02
  3.663271e-02
  4.847724e-02
  6.693503e-02
  2.290141e-01
  2.136657e-01
  1.418546e-01
  8.630223e-02
  9.514650e-02
  1.929541e-01
  3.627121e-01
  4.729700e-01
  4.383172e-01
  2.974489e-01
  1.529084e-01
  6.770249e-02
  3.572974e-02
  2.780598e-02
  3.005082e-02
  4.199852e-02
  8.301483e-02
  2.220677e-01
  4.953725e-01
  6.794943e-01
  6.808751e-01
  5.055357e-01
  2.393738e-01
  9.354416e-02
  5.478765e-02
  5.196144e-02
  6.324527e-02
  8.269508e-02
  1.163157e-01
  1.962316e-01
  4.047172e-01
  7.201716e-01
  8.750387e-01
  9.076309e-01
  8.625824e-01
  7.151546e-01
  4.225589e-01
  1.810385e-01
  8.414718e-02
  6.036610e-02
  5.297482e-02
  4.479278e-02
  3.821908e-02
  3.776105e-02
  5.792995e-02
  1.623077e-01
  5.031348e-01
  7.973357e-01
  8.905470e-01
  8.854146e-01
  7.916282e-01
  5.290873e-01
  2.011245e-01
  1.131017e-01
  2.686938e-01
  7.595908e-01
  9.385843e-01
  9.375960e-01
  7.479600e-01
  2.583775e-01
  8.388438e-02
  6.806947e-02
  1.104127e-01
  1.812998e-01
  7.317996e-01
  6.735918e-01
  4.137357e-01
  1.528131e-01
  7.789477e-02
  8.198876e-02
  1.173512e-01
  1.471840e-01
  1.419217e-01
  1.066154e-01
  6.894515e-02
  4.544068e-02
  3.578929e-02
  3.354713e-02
  3.665263e-02
  5.516942e-02
  1.445479e-01
  4.766735e-01
  8.204658e-01
  9.293200e-01
  9.340064e-01
  8.432615e-01
  5.378814e-01
  1.767153e-01
  8.265682e-02
  9.940256e-02
  1.765363e-01
  2.731125e-01
  3.780802e-01
  5.062758e-01
  6.570183e-01
  8.052276e-01
  8.946891e-01
  9.412972e-01
  9.512979e-01
  9.137978e-01
  7.753751e-01
  4.534981e-01
  1.637235e-01
  6.233653e-02
  3.873915e-02
  3.309806e-02
  3.141507e-02
  3.691080e-02
  7.902635e-02
  2.804287e-01
  7.554710e-01
  9.429334e-01
  9.860997e-01
  9.875297e-01
  9.549914e-01
  8.129890e-01
  3.983332e-01
  1.543772e-01
  2.164422e-01
  6.310572e-01
  8.927901e-01
  9.349664e-01
  8.061726e-01
  3.634726e-01
  1.704041e-01
  2.185973e-01
  4.014135e-01
  6.300594e-01
  9.520613e-01
  9.177962e-01
  7.186468e-01
  2.526452e-01
  8.555592e-02
  5.559789e-02
  6.422913e-02
  8.836947e-02
  1.092852e-01
  1.066904e-01
  8.214894e-02
  5.668960e-02
  4.467114e-02
  4.096916e-02
  4.390885e-02
  7.013807e-02
  2.073724e-01
  6.676760e-01
  9.195936e-01
  9.795471e-01
  9.824444e-01
  9.299553e-01
  6.993385e-01
  2.567381e-01
  1.522742e-01
  2.856780e-01
  5.720095e-01
  7.568211e-01
  8.124502e-01
  7.838959e-01
  6.667731e-01
  6.201206e-01
  7.124673e-01
  8.566967e-01
  9.438325e-01
  9.628763e-01
  9.260782e-01
  7.643206e-01
  3.693072e-01
  1.081816e-01
  4.297767e-02
  3.019821e-02
  2.911546e-02
  4.053852e-02
  1.111029e-01
  4.173630e-01
  8.528458e-01
  9.730108e-01
  9.977774e-01
  9.999000e-01
  9.853382e-01
  8.924768e-01
  5.211743e-01
  1.758022e-01
  1.469261e-01
  3.681366e-01
  7.015414e-01
  8.100007e-01
  7.104608e-01
  4.037567e-01
  3.510829e-01
  6.019980e-01
  8.178871e-01
  9.203165e-01
  9.986780e-01
  9.718128e-01
  8.119352e-01
  2.966200e-01
  8.916691e-02
  5.462977e-02
  8.331776e-02
  1.736465e-01
  2.746523e-01
  2.924994e-01
  2.077625e-01
  1.027306e-01
  6.029160e-02
  4.852861e-02
  5.064773e-02
  8.197584e-02
  2.370643e-01
  7.004765e-01
  9.081210e-01
  9.526071e-01
  9.461245e-01
  8.743984e-01
  6.215893e-01
  2.574590e-01
  2.457238e-01
  5.891931e-01
  8.634267e-01
  9.442823e-01
  9.346750e-01
  8.036835e-01
  4.160285e-01
  2.152141e-01
  2.731190e-01
  5.904411e-01
  8.830582e-01
  9.661249e-01
  9.726218e-01
  9.086380e-01
  6.389401e-01
  1.890081e-01
  5.745839e-02
  3.240200e-02
  3.233189e-02
  5.493865e-02
  1.671772e-01
  5.647564e-01
  8.851756e-01
  9.622715e-01
  9.761503e-01
  9.752037e-01
  9.528725e-01
  8.368788e-01
  4.453652e-01
  1.456928e-01
  8.905109e-02
  1.466077e-01
  2.823724e-01
  3.777197e-01
  3.470841e-01
  2.865204e-01
  4.650277e-01
  8.174905e-01
  9.508613e-01
  9.903762e-01
  9.999000e-01
  9.607870e-01
  7.702793e-01
  2.590877e-01
  7.988401e-02
  7.155554e-02
  1.892161e-01
  5.039735e-01
  7.459511e-01
  7.712035e-01
  5.747024e-01
  2.158148e-01
  8.622844e-02
  5.809934e-02
  6.407368e-02
  1.116613e-01
  2.724953e-01
  6.331444e-01
  7.779201e-01
  7.874084e-01
  7.383018e-01
  5.842326e-01
  3.152992e-01
  1.662339e-01
  2.636286e-01
  7.074137e-01
  9.337837e-01
  9.784150e-01
  9.380353e-01
  7.198007e-01
  2.345084e-01
  7.047051e-02
  8.718940e-02
  3.154761e-01
  7.993990e-01
  9.578983e-01
  9.875906e-01
  9.597644e-01
  7.822924e-01
  2.621371e-01
  7.380120e-02
  3.912712e-02
  4.709877e-02
  9.953123e-02
  2.778212e-01
  6.701548e-01
  8.533893e-01
  8.730449e-01
  8.540647e-01
  8.286461e-01
  7.651854e-01
  5.665873e-01
  2.394105e-01
  9.232647e-02
  6.053908e-02
  7.089479e-02
  1.023176e-01
  1.281647e-01
  1.328563e-01
  1.729553e-01
  4.265347e-01
  8.444381e-01
  9.719687e-01
  9.999000e-01
  9.616157e-01
  8.734298e-01
  5.726513e-01
  1.691275e-01
  6.665299e-02
  1.170107e-01
  4.020856e-01
  8.013564e-01
  9.393672e-01
  9.424244e-01
  7.895396e-01
  3.133318e-01
  1.073436e-01
  7.131964e-02
  1.050877e-01
  2.317821e-01
  4.306891e-01
  5.666981e-01
  4.403729e-01
  3.051721e-01
  2.316565e-01
  1.684006e-01
  1.051663e-01
  9.093838e-02
  1.998001e-01
  6.045610e-01
  8.809569e-01
  9.352579e-01
  8.523547e-01
  5.191765e-01
  1.387882e-01
  3.709537e-02
  4.526031e-02
  2.021027e-01
  7.163367e-01
  9.444770e-01
  9.917012e-01
  9.735968e-01
  8.206757e-01
  2.944199e-01
  8.440349e-02
  5.290274e-02
  9.280641e-02
  2.320472e-01
  4.939121e-01
  6.937205e-01
  6.563670e-01
  5.114089e-01
  3.814889e-01
  3.075724e-01
  2.510369e-01
  1.749553e-01
  9.573801e-02
  6.212736e-02
  5.516732e-02
  5.689941e-02
  6.145848e-02
  6.546107e-02
  7.026585e-02
  1.077842e-01
  2.987943e-01
  7.440632e-01
  9.306862e-01
  9.729406e-01
  7.765954e-01
  5.815159e-01
  2.548087e-01
  8.385093e-02
  6.852482e-02
  2.114353e-01
  6.557342e-01
  9.173749e-01
  9.803027e-01
  9.629676e-01
  8.022988e-01
  3.069908e-01
  1.048026e-01
  8.929726e-02
  2.057081e-01
  5.485032e-01
  7.504131e-01
  6.753538e-01
  2.897301e-01
  1.119369e-01
  6.662463e-02
  5.314707e-02
  4.706322e-02
  5.585682e-02
  1.130203e-01
  3.169510e-01
  6.156761e-01
  7.051504e-01
  5.561598e-01
  2.431149e-01
  7.351625e-02
  2.856217e-02
  3.735716e-02
  1.464140e-01
  5.755632e-01
  8.995203e-01
  9.759947e-01
  9.543500e-01
  7.737487e-01
  2.657650e-01
  8.514967e-02
  8.248966e-02
  2.153424e-01
  5.269510e-01
  7.182918e-01
  6.126833e-01
  3.124271e-01
  1.499371e-01
  9.088547e-02
  7.233588e-02
  6.705029e-02
  6.592646e-02
  7.154126e-02
  8.456705e-02
  9.205789e-02
  8.417994e-02
  6.718190e-02
  5.641864e-02
  5.383000e-02
  7.034732e-02
  1.606481e-01
  4.471560e-01
  7.281427e-01
  8.151441e-01
  2.671307e-01
  1.753820e-01
  8.446216e-02
  5.470142e-02
  1.181799e-01
  4.003390e-01
  8.189785e-01
  9.568905e-01
  9.758965e-01
  9.175551e-01
  6.644651e-01
  2.143252e-01
  8.087107e-02
  1.026043e-01
  3.180994e-01
  7.796124e-01
  9.038866e-01
  7.802429e-01
  2.866180e-01
  8.021908e-02
  3.803936e-02
  3.415081e-02
  3.939002e-02
  4.932678e-02
  7.019592e-02
  1.228196e-01
  2.033671e-01
  2.313390e-01
  1.755735e-01
  8.922459e-02
  4.215204e-02
  2.701966e-02
  3.379197e-02
  9.391740e-02
  3.410208e-01
  7.359715e-01
  8.736129e-01
  8.318716e-01
  5.678846e-01
  1.810787e-01
  8.005508e-02
  1.420690e-01
  4.431480e-01
  7.760163e-01
  7.976088e-01
  4.646178e-01
  1.468180e-01
  5.005347e-02
  2.756359e-02
  2.826317e-02
  4.567444e-02
  9.126394e-02
  1.749993e-01
  2.583452e-01
  2.864203e-01
  2.292829e-01
  1.259692e-01
  7.098845e-02
  5.306459e-02
  5.311348e-02
  7.728540e-02
  1.522718e-01
  2.526766e-01
  3.005501e-01
  7.878135e-02
  5.870367e-02
  4.872768e-02
  8.817807e-02
  2.800015e-01
  6.892558e-01
  9.157831e-01
  9.671035e-01
  9.377936e-01
  7.727025e-01
  3.686983e-01
  1.067360e-01
  5.196113e-02
  1.012817e-01
  3.735917e-01
  8.479233e-01
  9.434277e-01
  8.186577e-01
  3.011987e-01
  8.077038e-02
  3.899239e-02
  4.318962e-02
  6.426762e-02
  8.604817e-02
  9.570013e-02
  9.358229e-02
  8.913700e-02
  8.215722e-02
  6.598562e-02
  4.689885e-02
  3.546266e-02
  3.130006e-02
  3.457728e-02
  5.791283e-02
  1.441448e-01
  3.332685e-01
  4.761260e-01
  4.181742e-01
  2.269980e-01
  9.270089e-02
  8.607504e-02
  2.486349e-01
  6.792183e-01
  8.708372e-01
  7.721506e-01
  3.115827e-01
  8.177561e-02
  2.830877e-02
  2.315800e-02
  4.450290e-02
  1.175800e-01
  2.989978e-01
  5.840833e-01
  7.611840e-01
  7.889307e-01
  6.508143e-01
  3.003485e-01
  1.123761e-01
  6.177643e-02
  5.180219e-02
  5.554192e-02
  6.888272e-02
  8.500200e-02
  9.005328e-02
  4.288163e-02
  4.162478e-02
  6.845193e-02
  2.066493e-01
  5.979029e-01
  8.801724e-01
  9.613214e-01
  9.517888e-01
  8.312436e-01
  4.724754e-01
  1.472188e-01
  4.318990e-02
  3.118542e-02
  9.040771e-02
  3.763775e-01
  8.518420e-01
  9.404054e-01
  8.030115e-01
  2.825238e-01
  7.961938e-02
  5.204883e-02
  9.335444e-02
  1.909356e-01
  2.763510e-01
  2.863419e-01
  2.123851e-01
  1.129259e-01
  6.336312e-02
  4.743565e-02
  4.487461e-02
  5.023595e-02
  5.679862e-02
  5.903031e-02
  6.101200e-02
  7.613578e-02
  1.150717e-01
  1.465155e-01
  1.286560e-01
  8.258503e-02
  6.389902e-02
  1.349217e-01
  4.420062e-01
  8.192172e-01
  8.893926e-01
  6.889149e-01
  2.090760e-01
  5.468250e-02
  2.933986e-02
  4.864323e-02
  1.379434e-01
  3.756745e-01
  7.122600e-01
  8.906500e-01
  9.538155e-01
  9.548407e-01
  8.550267e-01
  4.705537e-01
  1.555584e-01
  7.547693e-02
  6.695027e-02
  7.472992e-02
  7.610648e-02
  6.610970e-02
  5.251755e-02
  4.824856e-02
  5.121395e-02
  1.190397e-01
  4.050493e-01
  8.260166e-01
  9.586029e-01
  9.693122e-01
  8.915054e-01
  6.035134e-01
  2.023854e-01
  5.148648e-02
  1.608994e-02
  2.024793e-02
  8.475934e-02
  3.810803e-01
  8.408191e-01
  9.142779e-01
  7.273391e-01
  2.287921e-01
  7.512884e-02
  9.074657e-02
  2.680839e-01
  6.028175e-01
  7.795537e-01
  7.848296e-01
  6.176334e-01
  2.767300e-01
  9.878512e-02
  6.101115e-02
  7.873894e-02
  1.346004e-01
  1.886920e-01
  1.990828e-01
  1.661800e-01
  1.161246e-01
  8.278582e-02
  6.760967e-02
  5.701791e-02
  5.139087e-02
  8.336596e-02
  2.648458e-01
  6.958837e-01
  9.016241e-01
  8.795827e-01
  5.668253e-01
  1.483677e-01
  4.702009e-02
  4.877513e-02
  1.289440e-01