# vtk DataFile Version 2.0
time_10.vtk
ASCII
DATASET STRUCTURED_GRID
DIMENSIONS    64    64     1
POINTS    4096 float
  0.000000e+00   0.000000e+00   0.000000e+00
  0.000000e+00   1.000000e+00   0.000000e+00
  0.000000e+00   2.000000e+00   0.000000e+00
  0.000000e+00   3.000000e+00   0.000000e+00
  0.000000e+00   4.000000e+00   0.000000e+00
  0.000000e+00   5.000000e+00   0.000000e+00
  0.000000e+00   6.000000e+00   0.000000e+00
  0.000000e+00   7.000000e+00   0.000000e+00
  0.000000e+00   8.000000e+00   0.000000e+00
  0.000000e+00   9.000000e+00   0.000000e+00
  0.000000e+00   1.000000e+01   0.000000e+00
  0.000000e+00   1.100000e+01   0.000000e+00
  0.000000e+00   1.200000e+01   0.000000e+00
  0.000000e+00   1.300000e+01   0.000000e+00
  0.000000e+00   1.400000e+01   0.000000e+00
  0.000000e+00   1.500000e+01   0.000000e+00
  0.000000e+00   1.600000e+01   0.000000e+00
  0.000000e+00   1.700000e+01   0.000000e+00
  0.000000e+00   1.800000e+01   0.000000e+00
  0.000000e+00   1.900000e+01   0.000000e+00
  0.000000e+00   2.000000e+01   0.000000e+00
  0.000000e+00   2.100000e+01   0.000000e+00
  0.000000e+00   2.200000e+01   0.000000e+00
  0.000000e+00   2.300000e+01   0.000000e+00
  0.000000e+00   2.400000e+01   0.000000e+00
  0.000000e+00   2.500000e+01   0.000000e+00
  0.000000e+00   2.600000e+01   0.000000e+00
  0.000000e+00   2.700000e+01   0.000000e+00
  0.000000e+00   2.800000e+01   0.000000e+00
  0.000000e+00   2.900000e+01   0.000000e+00
  0.000000e+00   3.000000e+01   0.000000e+00
  0.000000e+00   3.100000e+01   0.000000e+00
  0.000000e+00   3.200000e+01   0.000000e+00
  0.000000e+00   3.300000e+01   0.000000e+00
  0.000000e+00   3.400000e+01   0.000000e+00
  0.000000e+00   3.500000e+01   0.000000e+00
  0.000000e+00   3.600000e+01   0.000000e+00
  0.000000e+00   3.700000e+01   0.000000e+00
  0.000000e+00   3.800000e+01   0.000000e+00
  0.000000e+00   3.900000e+01   0.000000e+00
  0.000000e+00   4.000000e+01   0.000000e+00
  0.000000e+00   4.100000e+01   0.000000e+00
  0.000000e+00   4.200000e+01   0.000000e+00
  0.000000e+00   4.300000e+01   0.000000e+00
  0.000000e+00   4.400000e+01   0.000000e+00
  0.000000e+00   4.500000e+01   0.000000e+00
  0.000000e+00   4.600000e+01   0.000000e+00
  0.000000e+00   4.700000e+01   0.000000e+00
  0.000000e+00   4.800000e+01   0.000000e+00
  0.000000e+00   4.900000e+01   0.000000e+00
  0.000000e+00   5.000000e+01   0.000000e+00
  0.000000e+00   5.100000e+01   0.000000e+00
  0.000000e+00   5.200000e+01   0.000000e+00
  0.000000e+00   5.300000e+01   0.000000e+00
  0.000000e+00   5.400000e+01   0.000000e+00
  0.000000e+00   5.500000e+01   0.000000e+00
  0.000000e+00   5.600000e+01   0.000000e+00
  0.000000e+00   5.700000e+01   0.000000e+00
  0.000000e+00   5.800000e+01   0.000000e+00
  0.000000e+00   5.900000e+01   0.000000e+00
  0.000000e+00   6.000000e+01   0.000000e+00
  0.000000e+00   6.100000e+01   0.000000e+00
  0.000000e+00   6.200000e+01   0.000000e+00
  0.000000e+00   6.300000e+01   0.000000e+00
  1.000000e+00   0.000000e+00   0.000000e+00
  1.000000e+00   1.000000e+00   0.000000e+00
  1.000000e+00   2.000000e+00   0.000000e+00
  1.000000e+00   3.000000e+00   0.000000e+00
  1.000000e+00   4.000000e+00   0.000000e+00
  1.000000e+00   5.000000e+00   0.000000e+00
  1.000000e+00   6.000000e+00   0.000000e+00
  1.000000e+00   7.000000e+00   0.000000e+00
  1.000000e+00   8.000000e+00   0.000000e+00
  1.000000e+00   9.000000e+00   0.000000e+00
  1.000000e+00   1.000000e+01   0.000000e+00
  1.000000e+00   1.100000e+01   0.000000e+00
  1.000000e+00   1.200000e+01   0.000000e+00
  1.000000e+00   1.300000e+01   0.000000e+00
  1.000000e+00   1.400000e+01   0.000000e+00
  1.000000e+00   1.500000e+01   0.000000e+00
  1.000000e+00   1.600000e+01   0.000000e+00
  1.000000e+00   1.700000e+01   0.000000e+00
  1.000000e+00   1.800000e+01   0.000000e+00
  1.000000e+00   1.900000e+01   0.000000e+00
  1.000000e+00   2.000000e+01   0.000000e+00
  1.000000e+00   2.100000e+01   0.000000e+00
  1.000000e+00   2.200000e+01   0.000000e+00
  1.000000e+00   2.300000e+01   0.000000e+00
  1.000000e+00   2.400000e+01   0.000000e+00
  1.000000e+00   2.500000e+01   0.000000e+00
  1.000000e+00   2.600000e+01   0.000000e+00
  1.000000e+00   2.700000e+01   0.000000e+00
  1.000000e+00   2.800000e+01   0.000000e+00
  1.000000e+00   2.900000e+01   0.000000e+00
  1.000000e+00   3.000000e+01   0.000000e+00
  1.000000e+00   3.100000e+01   0.000000e+00
  1.000000e+00   3.200000e+01   0.000000e+00
  1.000000e+00   3.300000e+01   0.000000e+00
  1.000000e+00   3.400000e+01   0.000000e+00
  1.000000e+00   3.500000e+01   0.000000e+00
  1.000000e+00   3.600000e+01   0.000000e+00
  1.000000e+00   3.700000e+01   0.000000e+00
  1.000000e+00   3.800000e+01   0.000000e+00
  1.000000e+00   3.900000e+01   0.000000e+00
  1.000000e+00   4.000000e+01   0.000000e+00
  1.000000e+00   4.100000e+01   0.000000e+00
  1.000000e+00   4.200000e+01   0.000000e+00
  1.000000e+00   4.300000e+01   0.000000e+00
  1.000000e+00   4.400000e+01   0.000000e+00
  1.000000e+00   4.500000e+01   0.000000e+00
  1.000000e+00   4.600000e+01   0.000000e+00
  1.000000e+00   4.700000e+01   0.000000e+00
  1.000000e+00   4.800000e+01   0.000000e+00
  1.000000e+00   4.900000e+01   0.000000e+00
  1.000000e+00   5.000000e+01   0.000000e+00
  1.000000e+00   5.100000e+01   0.000000e+00
  1.000000e+00   5.200000e+01   0.000000e+00
  1.000000e+00   5.300000e+01   0.000000e+00
  1.000000e+00   5.400000e+01   0.000000e+00
  1.000000e+00   5.500000e+01   0.000000e+00
  1.000000e+00   5.600000e+01   0.000000e+00
  1.000000e+00   5.700000e+01   0.000000e+00
  1.000000e+00   5.800000e+01   0.000000e+00
  1.000000e+00   5.900000e+01   0.000000e+00
  1.000000e+00   6.000000e+01   0.000000e+00
  1.000000e+00   6.100000e+01   0.000000e+00
  1.000000e+00   6.200000e+01   0.000000e+00
  1.000000e+00   6.300000e+01   0.000000e+00
  2.000000e+00   0.000000e+00   0.000000e+00
  2.000000e+00   1.000000e+00   0.000000e+00
  2.000000e+00   2.000000e+00   0.000000e+00
  2.000000e+00   3.000000e+00   0.000000e+00
  2.000000e+00   4.000000e+00   0.000000e+00
  2.000000e+00   5.000000e+00   0.000000e+00
  2.000000e+00   6.000000e+00   0.000000e+00
  2.000000e+00   7.000000e+00   0.000000e+00
  2.000000e+00   8.000000e+00   0.000000e+00
  2.000000e+00   9.000000e+00   0.000000e+00
  2.000000e+00   1.000000e+01   0.000000e+00
  2.000000e+00   1.100000e+01   0.000000e+00
  2.000000e+00   1.200000e+01   0.000000e+00
  2.000000e+00   1.300000e+01   0.000000e+00
  2.000000e+00   1.400000e+01   0.000000e+00
  2.000000e+00   1.500000e+01   0.000000e+00
  2.000000e+00   1.600000e+01   0.000000e+00
  2.000000e+00   1.700000e+01   0.000000e+00
  2.000000e+00   1.800000e+01   0.000000e+00
  2.000000e+00   1.900000e+01   0.000000e+00
  2.000000e+00   2.000000e+01   0.000000e+00
  2.000000e+00   2.100000e+01   0.000000e+00
  2.000000e+00   2.200000e+01   0.000000e+00
  2.000000e+00   2.300000e+01   0.000000e+00
  2.000000e+00   2.400000e+01   0.000000e+00
  2.000000e+00   2.500000e+01   0.000000e+00
  2.000000e+00   2.600000e+01   0.000000e+00
  2.000000e+00   2.700000e+01   0.000000e+00
  2.000000e+00   2.800000e+01   0.000000e+00
  2.000000e+00   2.900000e+01   0.000000e+00
  2.000000e+00   3.000000e+01   0.000000e+00
  2.000000e+00   3.100000e+01   0.000000e+00
  2.000000e+00   3.200000e+01   0.000000e+00
  2.000000e+00   3.300000e+01   0.000000e+00
  2.000000e+00   3.400000e+01   0.000000e+00
  2.000000e+00   3.500000e+01   0.000000e+00
  2.000000e+00   3.600000e+01   0.000000e+00
  2.000000e+00   3.700000e+01   0.000000e+00
  2.000000e+00   3.800000e+01   0.000000e+00
  2.000000e+00   3.900000e+01   0.000000e+00
  2.000000e+00   4.000000e+01   0.000000e+00
  2.000000e+00   4.100000e+01   0.000000e+00
  2.000000e+00   4.200000e+01   0.000000e+00
  2.000000e+00   4.300000e+01   0.000000e+00
  2.000000e+00   4.400000e+01   0.000000e+00
  2.000000e+00   4.500000e+01   0.000000e+00
  2.000000e+00   4.600000e+01   0.000000e+00
  2.000000e+00   4.700000e+01   0.000000e+00
  2.000000e+00   4.800000e+01   0.000000e+00
  2.000000e+00   4.900000e+01   0.000000e+00
  2.000000e+00   5.000000e+01   0.000000e+00
  2.000000e+00   5.100000e+01   0.000000e+00
  2.000000e+00   5.200000e+01   0.000000e+00
  2.000000e+00   5.300000e+01   0.000000e+00
  2.000000e+00   5.400000e+01   0.000000e+00
  2.000000e+00   5.500000e+01   0.000000e+00
  2.000000e+00   5.600000e+01   0.000000e+00
  2.000000e+00   5.700000e+01   0.000000e+00
  2.000000e+00   5.800000e+01   0.000000e+00
  2.000000e+00   5.900000e+01   0.000000e+00
  2.000000e+00   6.000000e+01   0.000000e+00
  2.000000e+00   6.100000e+01   0.000000e+00
  2.000000e+00   6.200000e+01   0.000000e+00
  2.000000e+00   6.300000e+01   0.000000e+00
  3.000000e+00   0.000000e+00   0.000000e+00
  3.000000e+00   1.000000e+00   0.000000e+00
  3.000000e+00   2.000000e+00   0.000000e+00
  3.000000e+00   3.000000e+00   0.000000e+00
  3.000000e+00   4.000000e+00   0.000000e+00
  3.000000e+00   5.000000e+00   0.000000e+00
  3.000000e+00   6.000000e+00   0.000000e+00
  3.000000e+00   7.000000e+00   0.000000e+00
  3.000000e+00   8.000000e+00   0.000000e+00
  3.000000e+00   9.000000e+00   0.000000e+00
  3.000000e+00   1.000000e+01   0.000000e+00
  3.000000e+00   1.100000e+01   0.000000e+00
  3.000000e+00   1.200000e+01   0.000000e+00
  3.000000e+00   1.300000e+01   0.000000e+00
  3.000000e+00   1.400000e+01   0.000000e+00
  3.000000e+00   1.500000e+01   0.000000e+00
  3.000000e+00   1.600000e+01   0.000000e+00
  3.000000e+00   1.700000e+01   0.000000e+00
  3.000000e+00   1.800000e+01   0.000000e+00
  3.000000e+00   1.900000e+01   0.000000e+00
  3.000000e+00   2.000000e+01   0.000000e+00
  3.000000e+00   2.100000e+01   0.000000e+00
  3.000000e+00   2.200000e+01   0.000000e+00
  3.000000e+00   2.300000e+01   0.000000e+00
  3.000000e+00   2.400000e+01   0.000000e+00
  3.000000e+00   2.500000e+01   0.000000e+00
  3.000000e+00   2.600000e+01   0.000000e+00
[...]
POINT_DATA  4096
SCALARS CON float 1
LOOKUP_TABLE default
  1.977106e-01
  6.989621e-01
  9.428547e-01
  9.948110e-01
  9.999000e-01
  9.995233e-01
  9.645808e-01
  7.789734e-01
  2.446790e-01
  6.476244e-02
  2.967951e-02
  2.441741e-02
  2.447285e-02
  2.538884e-02
  2.652244e-02
  2.778004e-02
  2.898223e-02
  2.978823e-02
  2.977157e-02
  2.855850e-02
  2.601120e-02
  2.249913e-02
  1.914459e-02
  1.726568e-02
  1.991997e-02
  4.133280e-02
  1.374956e-01
  4.372820e-01
  7.986259e-01
  9.427089e-01
  9.831037e-01
  9.929701e-01
  9.940659e-01
  9.905600e-01
  9.786364e-01
  9.452614e-01
  8.602433e-01
  6.653534e-01
  3.367231e-01
  1.197801e-01
  4.557054e-02
  2.911216e-02
  2.858499e-02
  3.154634e-02
  3.402025e-02
  3.469733e-02
  3.346673e-02
  3.097668e-02
  2.832727e-02
  2.728031e-02
  3.124551e-02
  4.941393e-02
  1.042730e-01
  1.976272e-01
  2.682673e-01
  2.809840e-01
  2.338121e-01
  1.484389e-01
  7.146724e-02
  3.368847e-02
  2.104921e-02
  1.861429e-02
  2.343576e-02
  5.220501e-02
  1.380366e-01
  5.154537e-01
  8.661825e-01
  9.684535e-01
  9.900706e-01
  9.854964e-01
  9.315885e-01
  6.990205e-01
  2.148610e-01
  6.962436e-02
  4.949485e-02
  5.569583e-02
  6.419792e-02
  7.096588e-02
  7.650250e-02
  8.148679e-02
  8.559498e-02
  8.738589e-02
  8.485390e-02
  7.640712e-02
  6.182773e-02
  4.361914e-02
  2.860934e-02
  2.060716e-02
  1.780386e-02
  2.247416e-02
  5.257387e-02
  1.718341e-01
  4.913360e-01
  8.158843e-01
  9.447366e-01
  9.830770e-01
  9.935682e-01
  9.958942e-01
  9.946894e-01
  9.885431e-01
  9.690678e-01
  9.073990e-01
  7.139572e-01
  3.165514e-01
  9.250151e-02
  3.739804e-02
  2.685388e-02
  2.548163e-02
  2.556631e-02
  2.555874e-02
  2.528309e-02
  2.497120e-02
  2.525113e-02
  2.824130e-02
  4.285454e-02
  1.062717e-01
  3.260754e-01
  6.438141e-01
  7.901792e-01
  8.110073e-01
  7.391956e-01
  5.200272e-01
  2.298176e-01
  7.617392e-02
  2.929075e-02
  1.866700e-02
  2.041444e-02
  4.006914e-02
  7.149955e-02
  2.492298e-01
  6.222160e-01
  8.398867e-01
  9.084887e-01
  8.975558e-01
  7.829133e-01
  4.597044e-01
  1.579093e-01
  1.044272e-01
  1.507037e-01
  2.159140e-01
  2.644123e-01
  2.965147e-01
  3.198559e-01
  3.390250e-01
  3.533675e-01
  3.573669e-01
  3.429623e-01
  3.028465e-01
  2.330342e-01
  1.402922e-01
  6.484499e-02
  3.171068e-02
  2.040826e-02
  1.762778e-02
  2.414807e-02
  5.950481e-02
  1.873754e-01
  5.033991e-01
  8.136450e-01
  9.418779e-01
  9.824325e-01
  9.946815e-01
  9.984534e-01
  9.989637e-01
  9.954348e-01
  9.782475e-01
  8.963798e-01
  5.904924e-01
  1.674977e-01
  5.219721e-02
  2.957978e-02
  2.552655e-02
  2.482131e-02
  2.462417e-02
  2.449683e-02
  2.457908e-02
  2.570850e-02
  3.189019e-02
  6.306825e-02
  2.088042e-01
  6.549765e-01
  9.006095e-01
  9.646888e-01
  9.720220e-01
  9.477263e-01
  8.516527e-01
  5.700957e-01
  1.925721e-01
  5.318464e-02
  2.118900e-02
  1.720362e-02
  2.652028e-02
  3.293262e-02
  8.593940e-02
  2.196779e-01
  4.091081e-01
  5.490721e-01
  5.326842e-01
  3.694577e-01
  1.935946e-01
  1.378490e-01
  2.646500e-01
  5.291711e-01
  7.254025e-01
  8.030045e-01
  8.307271e-01
  8.431732e-01
  8.512473e-01
  8.570805e-01
  8.591704e-01
  8.529265e-01
  8.251460e-01
  7.321911e-01
  4.837176e-01
  1.882176e-01
  6.210546e-02
  2.776986e-02
  1.841453e-02
  1.675512e-02
  2.442572e-02
  6.081020e-02
  1.846706e-01
  4.838468e-01
  7.961631e-01
  9.339981e-01
  9.801659e-01
  9.950687e-01
  9.999000e-01
  9.999000e-01
  9.952319e-01
  9.498614e-01
  7.292579e-01
  2.207477e-01
  6.362745e-02
  3.237580e-02
  2.658885e-02
  2.546386e-02
  2.513890e-02
  2.496103e-02
  2.504103e-02
  2.650817e-02
  3.531616e-02
  8.212818e-02
  2.997453e-01
  8.094796e-01
  9.678754e-01
  9.977227e-01
  9.999000e-01
  9.926533e-01
  9.580663e-01
  8.176481e-01
  4.070718e-01
  1.052772e-01
  2.898107e-02
  1.524833e-02
  1.737487e-02
  1.740565e-02
  3.166418e-02
  6.268903e-02
  1.086054e-01
  1.466359e-01
  1.456363e-01
  1.122323e-01
  9.786654e-02
  1.952999e-01
  5.785806e-01
  8.552831e-01
  9.441913e-01
  9.677914e-01
  9.741424e-01
  9.764563e-01
  9.780453e-01
  9.795187e-01
  9.805911e-01
  9.801603e-01
  9.741690e-01
  9.431821e-01
  8.129827e-01
  4.280950e-01
  1.197419e-01
  3.981100e-02
  2.139409e-02
  1.616662e-02
  1.569855e-02
  2.356425e-02
  5.746389e-02
  1.682686e-01
  4.379898e-01
  7.596517e-01
  9.156553e-01
  9.716667e-01
  9.912661e-01
  9.969708e-01
  9.910510e-01
  9.403449e-01
  7.080367e-01
  2.141774e-01
  6.349389e-02
  3.320226e-02
  2.744657e-02
  2.625921e-02
  2.587041e-02
  2.559948e-02
  2.553615e-02
  2.695142e-02
  3.684377e-02
  9.160411e-02
  3.445650e-01
  8.512793e-01
  9.803185e-01
  9.999000e-01
  9.999000e-01
  9.993152e-01
  9.864180e-01
  9.222557e-01
  6.618115e-01
  1.990147e-01
  4.633400e-02
  1.557030e-02
  1.238006e-02
  1.099655e-02
  1.590771e-02
  2.420270e-02
  3.499586e-02
  4.415822e-02
  4.707152e-02
  4.915456e-02
  8.164720e-02
  2.616970e-01
  7.661729e-01
  9.530068e-01
  9.924187e-01
  9.979667e-01
  9.984907e-01
  9.985381e-01
  9.987482e-01
  9.991421e-01
  9.996109e-01
  9.999000e-01
  9.999000e-01
  9.898180e-01
  9.218517e-01
  6.261650e-01
  1.746848e-01
  5.074079e-02
  2.432624e-02
  1.738181e-02
  1.473758e-02
  1.494090e-02
  2.218216e-02
  5.108757e-02
  1.415870e-01
  3.634106e-01
  6.823002e-01
  8.627540e-01
  9.368053e-01
  9.579482e-01
  9.406567e-01
  8.375649e-01
  5.095787e-01
  1.500103e-01
  5.215186e-02
  3.191666e-02
  2.788357e-02
  2.700939e-02
  2.669377e-02
  2.639893e-02
  2.615309e-02
  2.712476e-02
  3.608786e-02
  8.841447e-02
  3.345379e-01
  8.458631e-01
  9.781925e-01
  9.993131e-01
  9.999000e-01
  9.999000e-01
  9.942045e-01
  9.626720e-01
  8.148005e-01
  3.522818e-01
  8.252330e-02
  2.020272e-02
  9.925036e-03
  7.757089e-03
  1.007932e-02
  1.387974e-02
  1.821599e-02
  2.227779e-02
  2.605664e-02
  3.488953e-02
  7.767011e-02
  2.812583e-01
  8.077240e-01
  9.707450e-01
  9.996710e-01
  9.999000e-01
  9.999000e-01
  9.999000e-01
  9.999000e-01
  9.999000e-01
  9.999000e-01
  9.999000e-01
  9.999000e-01
  9.911710e-01
  9.262320e-01
  6.363678e-01
  1.779977e-01
  5.191098e-02
  2.544513e-02
  1.870008e-02
  1.588616e-02
  1.447784e-02
  1.515327e-02
  2.143594e-02
  4.367980e-02
  1.072678e-01
  2.534311e-01
  4.918366e-01
  6.930338e-01
  7.604920e-01
  7.115306e-01
  5.051095e-01
  2.216556e-01
  7.809511e-02
  3.893536e-02
  3.001228e-02
  2.815532e-02
  2.788598e-02
  2.798988e-02
  2.805048e-02
  2.779344e-02
  2.797376e-02
  3.421514e-02
  7.572428e-02
  2.811803e-01
  8.003609e-01
  9.650093e-01
  9.960994e-01
  9.999000e-01
  9.999000e-01
  9.967221e-01
  9.803860e-01
  9.014549e-01
  5.844812e-01
  1.597927e-01
  3.498332e-02
  1.034197e-02
  7.041602e-03
  7.072651e-03
  9.614306e-03
  1.278224e-02
  1.609113e-02
  2.003185e-02
  2.893642e-02
  6.616598e-02
  2.395918e-01
  7.453891e-01
  9.488512e-01
  9.925826e-01
  9.985801e-01
  9.985947e-01
  9.978822e-01
  9.972532e-01
  9.967406e-01
  9.960798e-01
  9.943011e-01
  9.876367e-01
  9.591320e-01
  8.400712e-01
  4.599566e-01
  1.279186e-01
  4.301369e-02
  2.466588e-02
  1.981208e-02
  1.785943e-02
  1.717180e-02
  1.794202e-02
  2.070589e-02
  2.720143e-02
  4.309089e-02
  7.899657e-02
  1.427934e-01
  2.115528e-01
  2.417282e-01
  2.166462e-01
  1.468487e-01
  7.659412e-02
  4.225795e-02
  3.149665e-02
  2.889629e-02
  2.872389e-02
  2.963248e-02
  3.158846e-02
  3.394812e-02
  3.473287e-02
  3.339566e-02
  3.455707e-02
  5.999324e-02
  2.033974e-01
  6.764803e-01
  9.260359e-01
  9.858413e-01
  9.975417e-01
  9.991929e-01
  9.975097e-01
  9.889926e-01
  9.495467e-01
  7.750780e-01
  3.128014e-01
  7.537151e-02
  1.765659e-02
  1.315555e-02
  6.848842e-03
  7.470053e-03
  9.969869e-03
  1.307085e-02
  1.681725e-02
  2.372594e-02
  4.757294e-02
  1.530404e-01
  5.232975e-01
  8.394705e-01
  9.428281e-01
  9.684836e-01
  9.733833e-01
  9.731324e-01
  9.716282e-01
  9.693917e-01
  9.649641e-01
  9.530883e-01
  9.183429e-01
  8.203853e-01
  5.729709e-01
  2.204926e-01
  7.001479e-02
  3.228759e-02
  2.347654e-02
  2.124811e-02
  2.162075e-02
  2.569278e-02
  3.547929e-02
  4.919967e-02
  6.195163e-02
  7.329049e-02
  8.519282e-02
  9.748722e-02
  1.029050e-01
  9.321281e-02
  7.325687e-02
  5.287876e-02
  3.791312e-02
  3.085021e-02
  2.873390e-02
  2.877804e-02
  3.037433e-02
  3.504398e-02
  4.598836e-02
  6.136801e-02
  6.895715e-02
  6.211829e-02
  4.814567e-02
  4.993439e-02
  1.214567e-01
  4.263901e-01
  8.163361e-01
  9.534887e-01
  9.882611e-01
  9.963165e-01
  9.970641e-01
  9.930592e-01
  9.745500e-01
  8.915129e-01
  5.854246e-01
  1.864422e-01
  4.687147e-02
  4.508118e-02
  1.645000e-02
  9.724397e-03
  9.583310e-03
  1.168387e-02
  1.477363e-02
  1.944355e-02
  3.088888e-02
  7.211554e-02
  2.160872e-01
  4.972568e-01
  7.190386e-01
  8.019359e-01
  8.245862e-01
  8.275168e-01
  8.236496e-01
  8.151560e-01
  7.966457e-01
  7.490441e-01
  6.275764e-01
  4.033845e-01
  1.989326e-01
  8.010089e-02
  3.749063e-02
  2.591895e-02
  2.330426e-02
  2.435776e-02
  3.200939e-02
  5.805766e-02
  1.167660e-01
  1.943856e-01
  2.545939e-01
  2.910946e-01
  3.058486e-01
  2.942359e-01
  2.460025e-01
  1.624119e-01
  8.332509e-02
  4.458557e-02
  3.171277e-02
  2.835406e-02
  2.815387e-02
  2.969598e-02
  3.517020e-02
  5.405596e-02
  1.083829e-01
  1.919697e-01
  2.343379e-01
  2.020495e-01
  1.202596e-01
  6.348379e-02
  7.089434e-02
  1.991306e-01
  5.592111e-01
  8.510944e-01
  9.552952e-01
  9.858460e-01
  9.939554e-01
  9.941809e-01
  9.866661e-01
  9.528868e-01
  8.157454e-01
  4.443284e-01
  1.471429e-01
  1.754806e-01
  6.897602e-02
  3.179384e-02
  1.892320e-02
  1.540419e-02
  1.558634e-02
  1.772799e-02
  2.240758e-02
  3.467844e-02
  6.912745e-02
  1.382666e-01
  2.137131e-01
  2.615892e-01
  2.819993e-01
  2.852421e-01
  2.796672e-01
  2.684957e-01
  2.498085e-01
  2.178171e-01
  1.671195e-01
  1.053072e-01
  5.913653e-02
  3.487206e-02
  2.602727e-02
  2.383360e-02
  2.475873e-02
  3.182450e-02
  6.320645e-02
  1.779021e-01
  4.277035e-01
  6.800532e-01
  7.913541e-01
  8.280876e-01
  8.355499e-01
  8.178685e-01
  7.411071e-01
  5.236549e-01
  2.272555e-01
  7.776445e-02
  3.763335e-02
  2.921553e-02
  2.861397e-02
  3.200404e-02
  4.715513e-02
  1.118396e-01
  3.335568e-01
  6.342503e-01
  7.448010e-01
  6.677419e-01
  3.882984e-01
  1.349385e-01
  6.119327e-02
  8.412914e-02
  2.354124e-01
  5.729801e-01
  8.382639e-01
  9.451617e-01
  9.805443e-01
  9.907671e-01
  9.908351e-01
  9.795817e-01
  9.326969e-01
  7.721931e-01
  4.333343e-01
  5.568867e-01
  2.879968e-01
  1.450576e-01
  7.524835e-02
  4.350171e-02
  2.834251e-02
  2.206434e-02
  2.103050e-02
  2.352284e-02
  3.027513e-02
  4.235166e-02
  5.537601e-02
  6.375373e-02
  6.695765e-02
  6.694831e-02
  6.559280e-02
  6.358392e-02
  6.032645e-02
  5.453816e-02
  4.555172e-02
  3.526608e-02
  2.788449e-02
  2.431251e-02
  2.339529e-02
  2.406697e-02
  2.790363e-02
  4.654251e-02
  1.348486e-01
  4.583497e-01
  8.029604e-01
  9.301206e-01
  9.656727e-01
  9.749556e-01
  9.764902e-01
  9.716100e-01
  9.463646e-01
  8.437631e-01
  5.247622e-01
  1.549569e-01
  5.232852e-02
  3.189877e-02
  2.960429e-02
  3.540321e-02
  6.630224e-02
  2.115344e-01
  6.626405e-01
  9.034228e-01
  9.569595e-01
  9.230528e-01
  7.301137e-01
  2.694027e-01
  8.063865e-02
  4.686653e-02
  8.089262e-02
  2.165336e-01
  5.120112e-01
  7.938589e-01
  9.245705e-01
  9.715433e-01
  9.862650e-01
  9.874759e-01
  9.753638e-01
  9.303328e-01
  8.044473e-01
  8.803480e-01
  7.532046e-01
  5.484145e-01
  3.244094e-01
  1.833623e-01
  9.514536e-02
  4.787525e-02
  2.852894e-02
  2.304186e-02
  2.229388e-02
  2.304694e-02
  2.387645e-02
  2.405177e-02
  2.382600e-02
  2.395561e-02
  2.514122e-02
  2.741498e-02
  2.958411e-02
  3.009012e-02
  2.839894e-02
  2.568650e-02
  2.387155e-02
  2.334865e-02
  2.370553e-02
  2.521095e-02
  3.171692e-02
  6.454288e-02
  2.235005e-01
  7.139877e-01
  9.376474e-01
  9.892821e-01
  9.979991e-01
  9.993413e-01
  9.995595e-01
  9.989426e-01
  9.923074e-01
  9.474207e-01
  7.403473e-01
  2.365901e-01
  6.851802e-02
  3.487357e-02
  3.052020e-02
  3.791940e-02
  8.056952e-02
  2.821790e-01
  8.015018e-01
  9.704701e-01
  9.999000e-01
  9.840074e-01
  8.583953e-01
  3.829440e-01
  1.043908e-01
  4.002028e-02
  3.492527e-02
  6.665236e-02
  1.707471e-01
  4.096269e-01
  7.193316e-01
  8.881334e-01
  9.554862e-01
  9.793524e-01
  9.845890e-01
  9.767257e-01
  9.480803e-01
  9.704423e-01
  9.438299e-01
  8.916325e-01
  7.992909e-01
  6.303746e-01
  3.599466e-01
  1.533190e-01
  5.819254e-02
  3.025723e-02
  2.270980e-02
  1.997246e-02
  1.831053e-02
  1.724822e-02
  1.746477e-02
  2.050478e-02
  2.845586e-02
  4.149065e-02
  5.348038e-02
  5.675422e-02
  4.923896e-02
  3.690858e-02
  2.869262e-02
  2.554914e-02
  2.499493e-02
  2.639854e-02
  3.426779e-02
  7.537984e-02
  2.728464e-01
  8.007517e-01
  9.693496e-01
  9.995653e-01
  9.999000e-01
  9.999000e-01
  9.999000e-01
  9.999000e-01
  9.993787e-01
  9.693742e-01
  8.019791e-01
  2.733699e-01
  7.638628e-02
  3.645038e-02
  3.094244e-02
  3.810344e-02
  8.081191e-02
  2.833854e-01
  8.035328e-01
  9.709708e-01
  9.999000e-01
  9.863591e-01
  8.669987e-01
  3.972048e-01
  1.083450e-01
  3.898515e-02
  2.442605e-02
  2.695886e-02
  5.033937e-02
  1.226847e-01
  2.999954e-01
  6.018346e-01
  8.226808e-01
  9.273845e-01
  9.684742e-01
  9.819453e-01
  9.818264e-01
  9.871131e-01
  9.867314e-01
  9.793860e-01
  9.609403e-01
  9.126718e-01
  7.738166e-01
  4.415923e-01
  1.376358e-01
  4.816546e-02
  2.675202e-02
  2.044063e-02
  1.768544e-02
  1.715302e-02
  2.127830e-02
  3.711675e-02
  7.669013e-02
  1.432059e-01
  2.010921e-01
  2.110655e-01
  1.642191e-01
  9.163598e-02
  4.670610e-02
  3.102589e-02
  2.688715e-02
  2.718451e-02
  3.428577e-02
  7.281556e-02
  2.587290e-01
  7.775501e-01
  9.608026e-01
  9.966452e-01
  9.999000e-01
  9.999000e-01
  9.999000e-01
  9.999000e-01
  9.948025e-01
  9.550040e-01
  7.617018e-01
  2.489022e-01
  7.167114e-02
  3.612427e-02
  3.132402e-02
  3.687578e-02
  6.833468e-02
  2.173418e-01
  6.757281e-01
  9.103670e-01
  9.627963e-01
  9.366972e-01
  7.650569e-01
  2.991994e-01
  8.717410e-02
  3.591964e-02
  2.286541e-02
  1.911623e-02
  2.155378e-02
  3.650579e-02
  8.256436e-02
  1.996503e-01
  4.346114e-01
  7.201233e-01
  8.819768e-01
  9.521106e-01
  9.788284e-01
  9.749535e-01
  9.910026e-01
  9.965163e-01
  9.963329e-01
  9.863722e-01
  9.377362e-01
  7.339446e-01
  2.543857e-01
  7.413375e-02
  3.243158e-02
  2.167737e-02
  1.840512e-02
  2.130360e-02
  4.100508e-02
  1.099741e-01
  2.805192e-01
  5.383430e-01
  7.062716e-01
  7.231790e-01
  5.816823e-01
  2.952159e-01
  1.017354e-01
  4.353998e-02
  2.972107e-02
  2.749166e-02
  3.191192e-02
  5.832168e-02
  1.867494e-01
  6.183475e-01
  8.914662e-01
  9.672244e-01
  9.851191e-01
  9.892510e-01
  9.885043e-01
  9.825295e-01
  9.604826e-01
  8.735690e-01
  5.801649e-01
  1.737618e-01
  5.767348e-02
  3.561097e-02
  3.461832e-02
  4.004791e-02
  5.704735e-02
  1.264816e-01
  3.652106e-01
  6.667823e-01
  7.735343e-01
  7.144913e-01
  4.528460e-01
  1.591251e-01
  5.883913e-02
  3.258171e-02
  2.402362e-02
  1.957330e-02
  1.714070e-02
  1.794830e-02
  2.621930e-02
  5.290029e-02
  1.237440e-01
  2.891158e-01
  5.826826e-01
  8.171479e-01
  9.306769e-01
  9.052161e-01
  9.685684e-01
  9.918636e-01
  9.999000e-01
  9.999000e-01
  9.771668e-01
  8.347948e-01
  3.321487e-01
  9.285506e-02
  3.647313e-02
  2.275648e-02
  2.117597e-02
  3.660748e-02
  1.090699e-01
  3.389638e-01
  6.964411e-01
  8.814950e-01
  9.445358e-01
  9.489204e-01
  8.853276e-01
  6.418281e-01
  2.105383e-01
  6.537304e-02
  3.353815e-02
  2.742352e-02
  2.857985e-02
  4.067529e-02
  9.675523e-02
  3.033184e-01
  6.419470e-01
  8.228643e-01
  8.916910e-01
  9.154008e-01
  9.116353e-01
  8.800325e-01
  8.004891e-01
  6.003291e-01
  2.718148e-01
  9.077015e-02
  4.467403e-02
  4.110838e-02
  5.382524e-02
  7.091925e-02
  8.266420e-02
  9.653761e-02
  1.429427e-01
  2.214322e-01
  2.621072e-01
  2.311953e-01
  1.448329e-01
  7.194452e-02
  4.476168e-02
  3.591736e-02
  3.047652e-02
  2.483445e-02
  1.978427e-02
  1.652347e-02
  1.573253e-02
  1.947374e-02
  3.415288e-02
  7.740195e-02
  1.920398e-01
  4.384638e-01
  7.423921e-01
  6.600559e-01
  8.635359e-01
  9.488738e-01
  9.800271e-01
  9.874398e-01
  9.615685e-01
  8.069642e-01
  3.133512e-01
  8.951660e-02
  3.602490e-02
  2.385462e-02
  3.010014e-02
  8.224645e-02
  2.877137e-01
  6.928465e-01
  9.092926e-01
  9.759801e-01
  9.942964e-01
  9.951810e-01
  9.668298e-01
  8.134214e-01
  3.146501e-01
  8.703130e-02
  3.670532e-02
  2.692075e-02
  2.581930e-02
  2.944835e-02
  4.558141e-02
  9.903677e-02
  2.113477e-01
  3.541000e-01
  4.970447e-01
  5.774185e-01
  5.639847e-01
  4.634538e-01
  3.218660e-01
  1.911781e-01
  9.201920e-02
  4.901144e-02
  4.462484e-02
  7.126431e-02
  1.453329e-01
  2.291317e-01
  2.571426e-01
  2.151504e-01
  1.386401e-01
  9.650824e-02
  8.468545e-02
  7.437948e-02
  6.061668e-02
  5.547525e-02
  6.300094e-02
  6.866839e-02
  6.244382e-02
  4.620009e-02
  3.020345e-02
  2.094773e-02
  1.649349e-02
  1.471784e-02
  1.597014e-02
  2.427107e-02
  5.214414e-02
  1.330267e-01
  3.345741e-01
  2.468236e-01
  5.177765e-01
  7.508514e-01
  8.531623e-01
  8.797176e-01
  8.272265e-01
  5.990242e-01
  2.054026e-01
  6.633345e-02
  3.186059e-02
  2.727228e-02
  5.539886e-02
  1.962123e-01
  5.942855e-01
  8.854875e-01
  9.736612e-01
  9.956049e-01
  9.999000e-01
  9.999000e-01
  9.821455e-01
  8.605970e-01
  3.689919e-01
  9.783228e-02
  3.734849e-02
  2.575045e-02
  2.372940e-02
  2.422423e-02
  2.768571e-02
  3.826732e-02
  6.012361e-02
  9.076502e-02
  1.242084e-01
  1.450053e-01
  1.415618e-01
  1.165999e-01
  8.474406e-02
  5.834892e-02
  4.167619e-02
  3.990684e-02
  6.450797e-02
  1.717671e-01
  4.693592e-01
  7.185361e-01
  7.693987e-01
  6.524346e-01
  3.450238e-01
  1.207847e-01
  5.828189e-02
  4.719191e-02
  5.798658e-02
  1.040768e-01
  1.850475e-01
  2.355296e-01
  2.178112e-01
  1.435187e-01
  6.899682e-02
  3.362853e-02
  2.134690e-02
  1.683614e-02
  1.495055e-02
  1.521683e-02
  2.037649e-02
  3.951266e-02
  9.768477e-02
  6.913172e-02
  1.464212e-01
  2.588291e-01
  3.723017e-01
  4.259713e-01
  3.646132e-01
  2.191855e-01
  9.037392e-02
  4.182856e-02
  2.840235e-02
  3.862413e-02
  1.181351e-01
  4.204096e-01
  8.195347e-01
  9.581904e-01
  9.918836e-01
  9.992417e-01
  9.999000e-01
  9.997888e-01
  9.808651e-01
  8.572907e-01
  3.583109e-01
  9.293044e-02
  3.472012e-02
  2.382509e-02
  2.187228e-02
  2.159592e-02
  2.197533e-02
  2.349000e-02
  2.677744e-02
  3.161120e-02
  3.705059e-02
  4.070845e-02
  4.066672e-02
  3.738576e-02
  3.334519e-02
  3.085759e-02
  3.196789e-02
  4.395553e-02
  1.011361e-01
  3.379125e-01
  7.853268e-01
  9.413233e-01
  9.625967e-01
  9.027951e-01
  6.483686e-01
  2.035083e-01
  6.998845e-02
  5.447874e-02
  1.055803e-01
  3.059236e-01
  6.125340e-01
  7.500269e-01
  7.167308e-01
  4.989913e-01
  2.048143e-01
  6.792461e-02
  3.073727e-02
  2.114604e-02
  1.804237e-02
  1.677518e-02
  1.696921e-02
  2.051529e-02
  3.335638e-02
  3.037523e-02
  4.563902e-02
  7.067899e-02
  9.911897e-02
  1.148514e-01
  1.027290e-01
  7.120907e-02
  4.290049e-02
  2.967489e-02
  3.025654e-02
  6.781314e-02
  2.518391e-01
  6.989629e-01
  9.266612e-01
  9.846051e-01
  9.974268e-01
  9.999000e-01
  9.999000e-01
  9.972775e-01
  9.703289e-01
  8.188986e-01
  2.991589e-01
  7.649852e-02
  2.977345e-02
  2.139418e-02
  2.004658e-02
  1.981065e-02
  1.971416e-02
  1.981431e-02
  2.040455e-02
  2.169904e-02
  2.364449e-02
  2.561146e-02
  2.667224e-02
  2.663754e-02
  2.641195e-02
  2.732473e-02
  3.162739e-02
  4.917476e-02
  1.297225e-01
  4.557717e-01
  8.838349e-01
  9.896530e-01
  9.999000e-01
  9.628438e-01
  7.698200e-01
  2.563390e-01
  8.298747e-02
  7.292365e-02