# vtk DataFile Version 2.0
time_10.vtk
ASCII
DATASET STRUCTURED_GRID
DIMENSIONS    64    64     1
POINTS    4096 float
  0.000000e+00   0.000000e+00   0.000000e+00
  0.000000e+00   1.000000e+00   0.000000e+00
  0.000000e+00   2.000000e+00   0.000000e+00
  0.000000e+00   3.000000e+00   0.000000e+00
  0.000000e+00   4.000000e+00   0.000000e+00
  0.000000e+00   5.000000e+00   0.000000e+00
  0.000000e+00   6.000000e+00   0.000000e+00
  0.000000e+00   7.000000e+00   0.000000e+00
  0.000000e+00   8.000000e+00   0.000000e+00
  0.000000e+00   9.000000e+00   0.000000e+00
  0.000000e+00   1.000000e+01   0.000000e+00
  0.000000e+00   1.100000e+01   0.000000e+00
  0.000000e+00   1.200000e+01   0.000000e+00
  0.000000e+00   1.300000e+01   0.000000e+00
  0.000000e+00   1.400000e+01   0.000000e+00
  0.000000e+00   1.500000e+01   0.000000e+00
  0.000000e+00   1.600000e+01   0.000000e+00
  0.000000e+00   1.700000e+01   0.000000e+00
  0.000000e+00   1.800000e+01   0.000000e+00
  0.000000e+00   1.900000e+01   0.000000e+00
  0.000000e+00   2.000000e+01   0.000000e+00
  0.000000e+00   2.100000e+01   0.000000e+00
  0.000000e+00   2.200000e+01   0.000000e+00
  0.000000e+00   2.300000e+01   0.000000e+00
  0.000000e+00   2.400000e+01   0.000000e+00
  0.000000e+00   2.500000e+01   0.000000e+00
  0.000000e+00   2.600000e+01   0.000000e+00
  0.000000e+00   2.700000e+01   0.000000e+00
  0.000000e+00   2.800000e+01   0.000000e+00
  0.000000e+00   2.900000e+01   0.000000e+00
  0.000000e+00   3.000000e+01   0.000000e+00
  0.000000e+00   3.100000e+01   0.000000e+00
  0.000000e+00   3.200000e+01   0.000000e+00
  0.000000e+00   3.300000e+01   0.000000e+00
  0.000000e+00   3.400000e+01   0.000000e+00
  0.000000e+00   3.500000e+01   0.000000e+00
  0.000000e+00   3.600000e+01   0.000000e+00
  0.000000e+00   3.700000e+01   0.000000e+00
  0.000000e+00   3.800000e+01   0.000000e+00
  0.000000e+00   3.900000e+01   0.000000e+00
  0.000000e+00   4.000000e+01   0.000000e+00
  0.000000e+00   4.100000e+01   0.000000e+00
  0.000000e+00   4.200000e+01   0.000000e+00
  0.000000e+00   4.300000e+01   0.000000e+00
  0.000000e+00   4.400000e+01   0.000000e+00
  0.000000e+00   4.500000e+01   0.000000e+00
  0.000000e+00   4.600000e+01   0.000000e+00
  0.000000e+00   4.700000e+01   0.000000e+00
  0.000000e+00   4.800000e+01   0.000000e+00
  0.000000e+00   4.900000e+01   0.000000e+00
  0.000000e+00   5.000000e+01   0.000000e+00
  0.000000e+00   5.100000e+01   0.000000e+00
  0.000000e+00   5.200000e+01   0.000000e+00
  0.000000e+00   5.300000e+01   0.000000e+00
  0.000000e+00   5.400000e+01   0.000000e+00
  0.000000e+00   5.500000e+01   0.000000e+00
  0.000000e+00   5.600000e+01   0.000000e+00
  0.000000e+00   5.700000e+01   0.000000e+00
  0.000000e+00   5.800000e+01   0.000000e+00
  0.000000e+00   5.900000e+01   0.000000e+00
  0.000000e+00   6.000000e+01   0.000000e+00
  0.000000e+00   6.100000e+01   0.000000e+00
  0.000000e+00   6.200000e+01   0.000000e+00
  0.000000e+00   6.300000e+01   0.000000e+00
  1.000000e+00   0.000000e+00   0.000000e+00
  1.000000e+00   1.000000e+00   0.000000e+00
  1.000000e+00   2.000000e+00   0.000000e+00
  1.000000e+00   3.000000e+00   0.000000e+00
  1.000000e+00   4.000000e+00   0.000000e+00
  1.000000e+00   5.000000e+00   0.000000e+00
  1.000000e+00   6.000000e+00   0.000000e+00
  1.000000e+00   7.000000e+00   0.000000e+00
  1.000000e+00   8.000000e+00   0.000000e+00
  1.000000e+00   9.000000e+00   0.000000e+00
  1.000000e+00   1.000000e+01   0.000000e+00
  1.000000e+00   1.100000e+01   0.000000e+00
  1.000000e+00   1.200000e+01   0.000000e+00
  1.000000e+00   1.300000e+01   0.000000e+00
  1.000000e+00   1.400000e+01   0.000000e+00
  1.000000e+00   1.500000e+01   0.000000e+00
  1.000000e+00   1.600000e+01   0.000000e+00
  1.000000e+00   1.700000e+01   0.000000e+00
  1.000000e+00   1.800000e+01   0.000000e+00
  1.000000e+00   1.900000e+01   0.000000e+00
  1.000000e+00   2.000000e+01   0.000000e+00
  1.000000e+00   2.100000e+01   0.000000e+00
  1.000000e+00   2.200000e+01   0.000000e+00
  1.000000e+00   2.300000e+01   0.000000e+00
  1.000000e+00   2.400000e+01   0.000000e+00
  1.000000e+00   2.500000e+01   0.000000e+00
  1.000000e+00   2.600000e+01   0.000000e+00
  1.000000e+00   2.700000e+01   0.000000e+00
  1.000000e+00   2.800000e+01   0.000000e+00
  1.000000e+00   2.900000e+01   0.000000e+00
  1.000000e+00   3.000000e+01   0.000000e+00
  1.000000e+00   3.100000e+01   0.000000e+00
  1.000000e+00   3.200000e+01   0.000000e+00
  1.000000e+00   3.300000e+01   0.000000e+00
  1.000000e+00   3.400000e+01   0.000000e+00
  1.000000e+00   3.500000e+01   0.000000e+00
  1.000000e+00   3.600000e+01   0.000000e+00
  1.000000e+00   3.700000e+01   0.000000e+00
  1.000000e+00   3.800000e+01   0.000000e+00
  1.000000e+00   3.900000e+01   0.000000e+00
  1.000000e+00   4.000000e+01   0.000000e+00
  1.000000e+00   4.100000e+01   0.000000e+00
  1.000000e+00   4.200000e+01   0.000000e+00
  1.000000e+00   4.300000e+01   0.000000e+00
  1.000000e+00   4.400000e+01   0.000000e+00
  1.000000e+00   4.500000e+01   0.000000e+00
  1.000000e+00   4.600000e+01   0.000000e+00
  1.000000e+00   4.700000e+01   0.000000e+00
  1.000000e+00   4.800000e+01   0.000000e+00
  1.000000e+00   4.900000e+01   0.000000e+00
  1.000000e+00   5.000000e+01   0.000000e+00
  1.000000e+00   5.100000e+01   0.000000e+00
  1.000000e+00   5.200000e+01   0.000000e+00
  1.000000e+00   5.300000e+01   0.000000e+00
  1.000000e+00   5.400000e+01   0.000000e+00
  1.000000e+00   5.500000e+01   0.000000e+00
  1.000000e+00   5.600000e+01   0.000000e+00
  1.000000e+00   5.700000e+01   0.000000e+00
  1.000000e+00   5.800000e+01   0.000000e+00
  1.000000e+00   5.900000e+01   0.000000e+00
  1.000000e+00   6.000000e+01   0.000000e+00
  1.000000e+00   6.100000e+01   0.000000e+00
  1.000000e+00   6.200000e+01   0.000000e+00
  1.000000e+00   6.300000e+01   0.000000e+00
  2.000000e+00   0.000000e+00   0.000000e+00
  2.000000e+00   1.000000e+00   0.000000e+00
  2.000000e+00   2.000000e+00   0.000000e+00
  2.000000e+00   3.000000e+00   0.000000e+00
  2.000000e+00   4.000000e+00   0.000000e+00
  2.000000e+00   5.000000e+00   0.000000e+00
  2.000000e+00   6.000000e+00   0.000000e+00
  2.000000e+00   7.000000e+00   0.000000e+00
  2.000000e+00   8.000000e+00   0.000000e+00
  2.000000e+00   9.000000e+00   0.000000e+00
  2.000000e+00   1.000000e+01   0.000000e+00
  2.000000e+00   1.100000e+01   0.000000e+00
  2.000000e+00   1.200000e+01   0.000000e+00
  2.000000e+00   1.300000e+01   0.000000e+00
  2.000000e+00   1.400000e+01   0.000000e+00
  2.000000e+00   1.500000e+01   0.000000e+00
  2.000000e+00   1.600000e+01   0.000000e+00
  2.000000e+00   1.700000e+01   0.000000e+00
  2.000000e+00   1.800000e+01   0.000000e+00
  2.000000e+00   1.900000e+01   0.000000e+00
  2.000000e+00   2.000000e+01   0.000000e+00
  2.000000e+00   2.100000e+01   0.000000e+00
  2.000000e+00   2.200000e+01   0.000000e+00
  2.000000e+00   2.300000e+01   0.000000e+00
  2.000000e+00   2.400000e+01   0.000000e+00
  2.000000e+00   2.500000e+01   0.000000e+00
  2.000000e+00   2.600000e+01   0.000000e+00
  2.000000e+00   2.700000e+01   0.000000e+00
  2.000000e+00   2.800000e+01   0.000000e+00
  2.000000e+00   2.900000e+01   0.000000e+00
  2.000000e+00   3.000000e+01   0.000000e+00
  2.000000e+00   3.100000e+01   0.000000e+00
  2.000000e+00   3.200000e+01   0.000000e+00
  2.000000e+00   3.300000e+01   0.000000e+00
  2.000000e+00   3.400000e+01   0.000000e+00
  2.000000e+00   3.500000e+01   0.000000e+00
  2.000000e+00   3.600000e+01   0.000000e+00
  2.000000e+00   3.700000e+01   0.000000e+00
  2.000000e+00   3.800000e+01   0.000000e+00
  2.000000e+00   3.900000e+01   0.000000e+00
  2.000000e+00   4.000000e+01   0.000000e+00
  2.000000e+00   4.100000e+01   0.000000e+00
  2.000000e+00   4.200000e+01   0.000000e+00
  2.000000e+00   4.300000e+01   0.000000e+00
  2.000000e+00   4.400000e+01   0.000000e+00
  2.000000e+00   4.500000e+01   0.000000e+00
  2.000000e+00   4.600000e+01   0.000000e+00
  2.000000e+00   4.700000e+01   0.000000e+00
  2.000000e+00   4.800000e+01   0.000000e+00
  2.000000e+00   4.900000e+01   0.000000e+00
  2.000000e+00   5.000000e+01   0.000000e+00
  2.000000e+00   5.100000e+01   0.000000e+00
  2.000000e+00   5.200000e+01   0.000000e+00
  2.000000e+00   5.300000e+01   0.000000e+00
  2.000000e+00   5.400000e+01   0.000000e+00
  2.000000e+00   5.500000e+01   0.000000e+00
  2.000000e+00   5.600000e+01   0.000000e+00
  2.000000e+00   5.700000e+01   0.000000e+00
  2.000000e+00   5.800000e+01   0.000000e+00
  2.000000e+00   5.900000e+01   0.000000e+00
  2.000000e+00   6.000000e+01   0.000000e+00
  2.000000e+00   6.100000e+01   0.000000e+00
  2.000000e+00   6.200000e+01   0.000000e+00
  2.000000e+00   6.300000e+01   0.000000e+00
  3.000000e+00   0.000000e+00   0.000000e+00
  3.000000e+00   1.000000e+00   0.000000e+00
  3.000000e+00   2.000000e+00   0.000000e+00
  3.000000e+00   3.000000e+00   0.000000e+00
  3.000000e+00   4.000000e+00   0.000000e+00
  3.000000e+00   5.000000e+00   0.000000e+00
  3.000000e+00   6.000000e+00   0.000000e+00
  3.000000e+00   7.000000e+00   0.000000e+00
  3.000000e+00   8.000000e+00   0.000000e+00
  3.000000e+00   9.000000e+00   0.000000e+00
  3.000000e+00   1.000000e+01   0.000000e+00
  3.000000e+00   1.100000e+01   0.000000e+00
  3.000000e+00   1.200000e+01   0.000000e+00
  3.000000e+00   1.300000e+01   0.000000e+00
  3.000000e+00   1.400000e+01   0.000000e+00
  3.000000e+00   1.500000e+01   0.000000e+00
  3.000000e+00   1.600000e+01   0.000000e+00
  3.000000e+00   1.700000e+01   0.000000e+00
  3.000000e+00   1.800000e+01   0.000000e+00
  3.000000e+00   1.900000e+01   0.000000e+00
  3.000000e+00   2.000000e+01   0.000000e+00
  3.000000e+00   2.100000e+01   0.000000e+00
  3.000000e+00   2.200000e+01   0.000000e+00
  3.000000e+00   2.300000e+01   0.000000e+00
  3.000000e+00   2.400000e+01   0.000000e+00
  3.000000e+00   2.500000e+01   0.000000e+00
  3.000000e+00   2.600000e+01   0.000000e+00
[...]
POINT_DATA  4096
SCALARS CON float 1
LOOKUP_TABLE default
  1.477088e-01
  5.403807e-01
  8.974499e-01
  9.862058e-01
  9.999000e-01
  9.974100e-01
  9.520258e-01
  7.340450e-01
  2.240054e-01
  6.440052e-02
  3.323202e-02
  2.870540e-02
  2.911694e-02
  3.037792e-02
  3.170185e-02
  3.266466e-02
  3.280786e-02
  3.184024e-02
  2.976174e-02
  2.673386e-02
  2.306279e-02
  1.951529e-02
  1.686021e-02
  1.573295e-02
  1.999473e-02
  4.832952e-02
  1.736715e-01
  5.351279e-01
  8.540632e-01
  9.614011e-01
  9.894624e-01
  9.962429e-01
  9.974867e-01
  9.965968e-01
  9.921990e-01
  9.761052e-01
  9.200724e-01
  7.419976e-01
  3.600540e-01
  1.067696e-01
  3.954520e-02
  2.638831e-02
  2.565039e-02
  2.798239e-02
  3.048972e-02
  3.182981e-02
  3.153269e-02
  2.976685e-02
  2.727997e-02
  2.550380e-02
  2.660469e-02
  3.487119e-02
  6.148182e-02
  1.180294e-01
  1.829381e-01
  2.065496e-01
  1.746519e-01
  1.093396e-01
  5.679481e-02
  3.066908e-02
  2.172832e-02
  2.059315e-02
  2.512741e-02
  4.641145e-02
  9.399171e-02
  3.322687e-01
  7.533836e-01
  9.242040e-01
  9.655691e-01
  9.583365e-01
  8.775398e-01
  5.837090e-01
  1.750484e-01
  6.434813e-02
  5.240189e-02
  6.354298e-02
  7.745832e-02
  9.003287e-02
  1.002127e-01
  1.061237e-01
  1.055327e-01
  9.764252e-02
  8.370652e-02
  6.575329e-02
  4.608897e-02
  2.982282e-02
  2.079871e-02
  1.659798e-02
  1.584870e-02
  2.384962e-02
  6.676288e-02
  2.319605e-01
  6.118997e-01
  8.765277e-01
  9.653071e-01
  9.900789e-01
  9.968412e-01
  9.986616e-01
  9.985451e-01
  9.953586e-01
  9.806653e-01
  9.154536e-01
  6.701211e-01
  2.169486e-01
  6.427101e-02
  3.179080e-02
  2.561677e-02
  2.463635e-02
  2.455767e-02
  2.446232e-02
  2.417543e-02
  2.377024e-02
  2.358782e-02
  2.480442e-02
  3.197944e-02
  6.318804e-02
  1.752979e-01
  4.148491e-01
  6.464734e-01
  7.143541e-01
  6.306714e-01
  4.005016e-01
  1.816401e-01
  6.748466e-02
  2.931943e-02
  2.027198e-02
  2.163151e-02
  3.478781e-02
  4.814433e-02
  1.391278e-01
  3.862516e-01
  6.674722e-01
  7.784227e-01
  7.619243e-01
  5.978734e-01
  2.863261e-01
  1.087146e-01
  8.802873e-02
  1.473134e-01
  2.333174e-01
  3.072111e-01
  3.663886e-01
  4.114623e-01
  4.360913e-01
  4.320066e-01
  3.964442e-01
  3.341556e-01
  2.514755e-01
  1.542510e-01
  7.208569e-02
  3.354972e-02
  2.032257e-02
  1.578146e-02
  1.597065e-02
  2.764961e-02
  8.160122e-02
  2.669142e-01
  6.403323e-01
  8.813139e-01
  9.649726e-01
  9.900067e-01
  9.975931e-01
  9.999000e-01
  9.999000e-01
  9.970955e-01
  9.700581e-01
  8.229695e-01
  3.305078e-01
  9.219253e-02
  3.863352e-02
  2.775980e-02
  2.528845e-02
  2.446276e-02
  2.396981e-02
  2.356254e-02
  2.328397e-02
  2.360501e-02
  2.689382e-02
  4.481612e-02
  1.310044e-01
  4.482564e-01
  7.960489e-01
  9.223919e-01
  9.474939e-01
  9.191362e-01
  8.061939e-01
  5.200198e-01
  1.882963e-01
  5.654778e-02
  2.359141e-02
  1.850568e-02
  2.390448e-02
  2.484009e-02
  4.935683e-02
  1.095622e-01
  1.939678e-01
  2.467397e-01
  2.411035e-01
  1.795066e-01
  1.048443e-01
  9.389112e-02
  2.081197e-01
  4.907480e-01
  7.290028e-01
  8.236844e-01
  8.585272e-01
  8.744786e-01
  8.817040e-01
  8.808457e-01
  8.696251e-01
  8.393684e-01
  7.551394e-01
  5.307503e-01
  2.225781e-01
  7.080310e-02
  2.902307e-02
  1.800098e-02
  1.462794e-02
  1.595180e-02
  3.008235e-02
  8.863729e-02
  2.752261e-01
  6.352153e-01
  8.722848e-01
  9.599524e-01
  9.883824e-01
  9.975440e-01
  9.999000e-01
  9.999000e-01
  9.829748e-01
  8.653956e-01
  3.906994e-01
  1.086237e-01
  4.321744e-02
  2.972222e-02
  2.652235e-02
  2.539823e-02
  2.473484e-02
  2.419787e-02
  2.382636e-02
  2.435343e-02
  2.985804e-02
  6.168789e-02
  2.192783e-01
  7.077796e-01
  9.347288e-01
  9.876854e-01
  9.951682e-01
  9.873485e-01
  9.504472e-01
  8.154958e-01
  4.442329e-01
  1.274337e-01
  3.603836e-02
  1.746479e-02
  1.690734e-02
  1.504072e-02
  2.182368e-02
  3.499455e-02
  5.230013e-02
  6.437795e-02
  6.543249e-02
  5.810778e-02
  6.132453e-02
  1.368964e-01
  4.553389e-01
  8.174454e-01
  9.409582e-01
  9.723868e-01
  9.802340e-01
  9.827027e-01
  9.837635e-01
  9.839010e-01
  9.824850e-01
  9.764689e-01
  9.507442e-01
  8.457797e-01
  5.143302e-01
  1.449837e-01
  4.394202e-02
  2.161399e-02
  1.561676e-02
  1.364846e-02
  1.578011e-02
  3.055795e-02
  8.708044e-02
  2.585096e-01
  5.945889e-01
  8.426029e-01
  9.451973e-01
  9.815464e-01
  9.940192e-01
  9.951000e-01
  9.708550e-01
  8.327331e-01
  3.526585e-01
  1.010550e-01
  4.285214e-02
  3.057415e-02
  2.755422e-02
  2.645014e-02
  2.576523e-02
  2.515175e-02
  2.464837e-02
  2.519975e-02
  3.225153e-02
  7.459848e-02
  2.818991e-01
  8.098299e-01
  9.700345e-01
  9.988293e-01
  9.999000e-01
  9.989231e-01
  9.871866e-01
  9.337711e-01
  7.243690e-01
  2.718486e-01
  6.755936e-02
  2.066936e-02
  1.312730e-02
  1.037124e-02
  1.285994e-02
  1.705654e-02
  2.190227e-02
  2.588062e-02
  2.846582e-02
  3.289681e-02
  5.762532e-02
  1.889128e-01
  6.580188e-01
  9.270902e-01
  9.890555e-01
  9.991300e-01
  9.999000e-01
  9.997016e-01
  9.996429e-01
  9.997595e-01
  9.999000e-01
  9.998995e-01
  9.934142e-01
  9.457306e-01
  7.241612e-01
  2.179649e-01
  5.862973e-02
  2.513581e-02
  1.719319e-02
  1.424079e-02
  1.314017e-02
  1.556816e-02
  2.919966e-02
  7.746825e-02
  2.159351e-01
  4.981639e-01
  7.693802e-01
  8.985679e-01
  9.463624e-01
  9.492084e-01
  8.923481e-01
  6.705485e-01
  2.364548e-01
  7.534639e-02
  3.850225e-02
  3.039048e-02
  2.829920e-02
  2.751474e-02
  2.699299e-02
  2.642131e-02
  2.580080e-02
  2.613841e-02
  3.345112e-02
  7.948955e-02
  3.046832e-01
  8.337490e-01
  9.762061e-01
  9.995956e-01
  9.999000e-01
  9.999000e-01
  9.959676e-01
  9.737933e-01
  8.722164e-01
  5.127641e-01
  1.380628e-01
  3.298804e-02
  1.230683e-02
  8.392238e-03
  8.766613e-03
  1.120730e-02
  1.408476e-02
  1.688966e-02
  1.992741e-02
  2.648244e-02
  5.495218e-02
  1.963997e-01
  6.897691e-01
  9.410110e-01
  9.941580e-01
  9.999000e-01
  9.999000e-01
  9.999000e-01
  9.999000e-01
  9.999000e-01
  9.999000e-01
  9.999000e-01
  9.986899e-01
  9.629878e-01
  7.726647e-01
  2.420687e-01
  6.405253e-02
  2.695958e-02
  1.859358e-02
  1.559966e-02
  1.388816e-02
  1.333658e-02
  1.579634e-02
  2.703835e-02
  6.232229e-02
  1.530648e-01
  3.322633e-01
  5.761996e-01
  7.195655e-01
  7.291712e-01
  5.942912e-01
  3.144283e-01
  1.125519e-01
  4.912148e-02
  3.354109e-02
  2.985309e-02
  2.895429e-02
  2.875971e-02
  2.870897e-02
  2.846332e-02
  2.782250e-02
  2.763587e-02
  3.368891e-02
  7.600235e-02
  2.883080e-01
  8.188667e-01
  9.714404e-01
  9.980565e-01
  9.999000e-01
  9.999000e-01
  9.981696e-01
  9.882391e-01
  9.413689e-01
  7.421783e-01
  2.782112e-01
  6.657543e-02
  1.705603e-02
  1.122455e-02
  7.125144e-03
  8.314382e-03
  1.077239e-02
  1.350988e-02
  1.663590e-02
  2.254185e-02
  4.477739e-02
  1.511227e-01
  5.554220e-01
  8.887204e-01
  9.777583e-01
  9.956304e-01
  9.986186e-01
  9.990242e-01
  9.991115e-01
  9.992801e-01
  9.994304e-01
  9.984443e-01
  9.895129e-01
  9.342594e-01
  6.940286e-01
  2.058566e-01
  5.738945e-02
  2.657603e-02
  1.959634e-02
  1.712599e-02
  1.573530e-02
  1.517778e-02
  1.617968e-02
  2.017712e-02
  3.009266e-02
  5.280296e-02
  9.841404e-02
  1.674959e-01
  2.207061e-01
  2.231654e-01
  1.720615e-01
  9.805638e-02
  5.135070e-02
  3.489040e-02
  3.043825e-02
  2.957373e-02
  2.983357e-02
  3.069860e-02
  3.203164e-02
  3.316039e-02
  3.291228e-02
  3.149894e-02
  3.430862e-02
  6.633497e-02
  2.390711e-01
  7.544680e-01
  9.523189e-01
  9.933201e-01
  9.996234e-01
  9.999000e-01
  9.987433e-01
  9.937849e-01
  9.722072e-01
  8.755144e-01
  5.324613e-01
  1.557965e-01
  3.768333e-02
  3.020872e-02
  1.131094e-02
  8.138601e-03
  9.315501e-03
  1.172987e-02
  1.465276e-02
  1.907707e-02
  3.179181e-02
  8.569109e-02
  3.008902e-01
  7.035288e-01
  8.974996e-01
  9.567393e-01
  9.730224e-01
  9.776181e-01
  9.790751e-01
  9.792907e-01
  9.775945e-01
  9.692917e-01
  9.352130e-01
  8.068486e-01
  4.494172e-01
  1.286173e-01
  4.322296e-02
  2.480964e-02
  2.035137e-02
  1.885714e-02
  1.872689e-02
  2.102364e-02
  2.820083e-02
  4.121537e-02
  5.633249e-02
  7.127760e-02
  8.638204e-02
  9.899565e-02
  9.931567e-02
  8.345730e-02
  6.140816e-02
  4.294662e-02
  3.296046e-02
  2.957885e-02
  2.908856e-02
  2.977703e-02
  3.148489e-02
  3.509864e-02
  4.183241e-02
  4.950179e-02
  5.171529e-02
  4.585028e-02
  3.989811e-02
  5.496596e-02
  1.665806e-01
  5.855249e-01
  8.935092e-01
  9.772035e-01
  9.954720e-01
  9.987848e-01
  9.985155e-01
  9.959170e-01
  9.862150e-01
  9.451127e-01
  7.783597e-01
  3.659332e-01
  1.075967e-01
  1.095661e-01
  3.923828e-02
  1.789686e-02
  1.248371e-02
  1.232456e-02
  1.408480e-02
  1.698820e-02
  2.301852e-02
  4.292404e-02
  1.157245e-01
  3.158306e-01
  6.006845e-01
  7.644130e-01
  8.242902e-01
  8.455456e-01
  8.532908e-01
  8.534893e-01
  8.436840e-01
  8.096549e-01
  7.050264e-01
  4.515597e-01
  1.831137e-01
  6.348946e-02
  3.113956e-02
  2.326510e-02
  2.123701e-02
  2.137398e-02
  2.528555e-02
  4.050800e-02
  8.215455e-02
  1.542674e-01
  2.244545e-01
  2.713594e-01
  2.909609e-01
  2.762658e-01
  2.191724e-01
  1.324407e-01
  6.656525e-02
  3.831232e-02
  2.978381e-02
  2.816102e-02
  2.875093e-02
  3.065076e-02
  3.539918e-02
  4.853246e-02
  8.002938e-02
  1.210331e-01
  1.365784e-01
  1.091774e-01
  6.849344e-02
  5.167951e-02
  9.562304e-02
  3.187715e-01
  7.297571e-01
  9.224368e-01
  9.785136e-01
  9.932592e-01
  9.966094e-01
  9.961477e-01
  9.920986e-01
  9.764297e-01
  9.138763e-01
  7.000403e-01
  3.186984e-01
  3.763605e-01
  1.650217e-01
  7.246366e-02
  3.640115e-02
  2.225138e-02
  1.766311e-02
  1.743827e-02
  1.960485e-02
  2.566175e-02
  4.377309e-02
  9.032546e-02
  1.682128e-01
  2.415510e-01
  2.932386e-01
  3.258209e-01
  3.427325e-01
  3.437437e-01
  3.257238e-01
  2.843761e-01
  2.165566e-01
  1.299376e-01
  6.356794e-02
  3.448567e-02
  2.532236e-02
  2.276292e-02
  2.263283e-02
  2.605608e-02
  4.273732e-02
  1.081665e-01
  2.936898e-01
  5.716500e-01
  7.467652e-01
  8.107899e-01
  8.244669e-01
  7.984245e-01
  6.894079e-01
  4.251367e-01
  1.676510e-01
  6.107395e-02
  3.378613e-02
  2.861346e-02
  2.904198e-02
  3.265031e-02
  4.521512e-02
  9.134057e-02
  2.293109e-01
  4.071179e-01
  4.734299e-01
  3.651922e-01
  1.854323e-01
  7.575296e-02
  5.926267e-02
  1.345131e-01
  3.934155e-01
  7.448415e-01
  9.131247e-01
  9.701717e-01
  9.882656e-01
  9.934670e-01
  9.934989e-01
  9.884635e-01
  9.688514e-01
  8.996989e-01
  7.042036e-01
  7.895434e-01
  5.599249e-01
  3.028415e-01
  1.533974e-01
  7.375611e-02
  3.717638e-02
  2.372864e-02
  2.056339e-02
  2.118767e-02
  2.473176e-02
  3.324446e-02
  4.713668e-02
  6.128493e-02
  7.233360e-02
  8.003703e-02
  8.469468e-02
  8.595572e-02
  8.285486e-02
  7.443917e-02
  6.072641e-02
  4.436521e-02
  3.188434e-02
  2.579634e-02
  2.354103e-02
  2.306474e-02
  2.472709e-02
  3.468267e-02
  8.305515e-02
  2.816871e-01
  6.834358e-01
  8.881305e-01
  9.528368e-01
  9.708045e-01
  9.739895e-01
  9.661639e-01
  9.278119e-01
  7.841128e-01
  4.072104e-01
  1.181209e-01
  4.436683e-02
  3.038342e-02
  2.976904e-02
  3.601554e-02
  6.443295e-02
  1.908891e-01
  5.869561e-01
  8.379519e-01
  8.884622e-01
  8.030872e-01
  4.924007e-01
  1.481410e-01
  5.520230e-02
  5.704370e-02
  1.378667e-01
  3.613060e-01
  6.888306e-01
  8.759872e-01
  9.519876e-01
  9.800827e-01
  9.895471e-01
  9.912086e-01
  9.867348e-01
  9.691336e-01
  9.165210e-01
  9.490902e-01
  8.872035e-01
  7.670991e-01
  5.499805e-01
  2.842754e-01
  1.177453e-01
  4.729130e-02
  2.702831e-02
  2.208371e-02
  2.111099e-02
  2.164776e-02
  2.322043e-02
  2.515383e-02
  2.711181e-02
  2.920061e-02
  3.144514e-02
  3.343483e-02
  3.443610e-02
  3.378882e-02
  3.144733e-02
  2.823885e-02
  2.557376e-02
  2.403385e-02
  2.336713e-02
  2.365631e-02
  2.710881e-02
  4.616248e-02
  1.428571e-01
  5.214888e-01
  8.775889e-01
  9.750558e-01
  9.951139e-01
  9.987310e-01
  9.992406e-01
  9.976863e-01
  9.860735e-01
  9.222225e-01
  6.578168e-01
  1.913906e-01
  5.783351e-02
  3.261646e-02
  3.049270e-02
  3.898400e-02
  8.224902e-02
  2.810636e-01
  7.890415e-01
  9.631603e-01
  9.906097e-01
  9.465347e-01
  7.238249e-01
  2.226168e-01
  6.321350e-02
  3.420043e-02
  4.715399e-02
  1.099460e-01
  2.732862e-01
  5.662429e-01
  8.040675e-01
  9.208675e-01
  9.678010e-01
  9.849432e-01
  9.898616e-01
  9.879443e-01
  9.772581e-01
  9.876618e-01
  9.764276e-01
  9.497398e-01
  8.829965e-01
  7.114286e-01
  3.640433e-01
  1.150153e-01
  4.323856e-02
  2.624542e-02
  2.165464e-02
  1.985328e-02
  1.903264e-02
  1.905457e-02
  2.033646e-02
  2.348055e-02
  2.844414e-02
  3.375477e-02
  3.724175e-02
  3.715800e-02
  3.380672e-02
  2.938172e-02
  2.615180e-02
  2.440461e-02
  2.364881e-02
  2.404827e-02
  2.849129e-02
  5.343371e-02
  1.818177e-01
  6.522463e-01
  9.321115e-01
  9.926612e-01
  9.999000e-01
  9.999000e-01
  9.999000e-01
  9.999000e-01
  9.963755e-01
  9.555377e-01
  7.495643e-01
  2.290752e-01
  6.503893e-02
  3.382426e-02
  3.077889e-02
  3.960478e-02
  8.588015e-02
  2.992327e-01
  8.168652e-01
  9.763243e-01
  9.999000e-01
  9.616058e-01
  7.564880e-01
  2.365423e-01
  6.466274e-02
  2.865522e-02
  2.394216e-02
  3.513781e-02
  7.528135e-02
  1.803783e-01
  4.000350e-01
  6.971294e-01
  8.738541e-01
  9.507694e-01
  9.799258e-01
  9.896975e-01
  9.913744e-01
  9.953465e-01
  9.959646e-01
  9.923679e-01
  9.782333e-01
  9.182099e-01
  6.922559e-01
  2.352080e-01
  7.039482e-02
  3.266339e-02
  2.331486e-02
  1.998743e-02
  1.868387e-02
  1.962647e-02
  2.498676e-02
  3.806894e-02
  5.906242e-02
  8.040233e-02
  9.233769e-02
  8.723433e-02
  6.764697e-02
  4.521148e-02
  3.164771e-02
  2.603283e-02
  2.401819e-02
  2.394400e-02
  2.785906e-02
  5.057267e-02
  1.675917e-01
  6.089280e-01
  9.165798e-01
  9.884853e-01
  9.999000e-01
  9.999000e-01
  9.999000e-01
  9.999000e-01
  9.924479e-01
  9.415366e-01
  7.081956e-01
  2.103306e-01
  6.140906e-02
  3.344786e-02
  3.096844e-02
  3.839045e-02
  7.429712e-02
  2.383071e-01
  7.083888e-01
  9.198259e-01
  9.551417e-01
  8.894515e-01
  6.120792e-01
  1.809960e-01
  5.461021e-02
  2.671431e-02
  1.972511e-02
  1.891948e-02
  2.526731e-02
  4.832883e-02
  1.126125e-01
  2.705289e-01
  5.640715e-01
  8.114644e-01
  9.300270e-01
  9.748484e-01
  9.903118e-01
  9.902265e-01
  9.979390e-01
  9.999000e-01
  9.999000e-01
  9.750715e-01
  8.329307e-01
  3.398084e-01
  9.568774e-02
  3.841925e-02
  2.473289e-02
  2.042877e-02
  2.016318e-02
  2.704264e-02
  5.222815e-02
  1.140146e-01
  2.114453e-01
  3.004622e-01
  3.441209e-01
  3.153896e-01
  2.221700e-01
  1.114131e-01
  5.026658e-02
  3.025149e-02
  2.458230e-02
  2.336656e-02
  2.558362e-02
  3.989035e-02
  1.120252e-01
  4.053678e-01
  8.122617e-01
  9.519835e-01
  9.868186e-01
  9.945495e-01
  9.950124e-01
  9.893601e-01
  9.635810e-01
  8.590218e-01
  5.160448e-01
  1.459394e-01
  4.977022e-02
  3.282285e-02
  3.351283e-02
  4.093920e-02
  6.215324e-02
  1.429699e-01
  4.040944e-01
  6.795193e-01
  7.422110e-01
  6.087768e-01
  2.974277e-01
  9.743916e-02
  4.081661e-02
  2.626352e-02
  2.095120e-02
  1.781993e-02
  1.646172e-02
  1.906373e-02
  3.199020e-02
  7.290299e-02
  1.853791e-01
  4.337207e-01
  7.432812e-01
  9.068470e-01
  9.685939e-01
  9.553724e-01
  9.857968e-01
  9.973681e-01
  9.999000e-01
  9.787924e-01
  8.460335e-01
  3.579696e-01
  1.009858e-01
  3.975369e-02
  2.504862e-02
  2.145730e-02
  2.680522e-02
  5.753357e-02
  1.628913e-01
  4.039478e-01
  6.841552e-01
  8.145340e-01
  8.501351e-01
  8.199442e-01
  6.705177e-01
  3.324905e-01
  1.033444e-01
  4.013884e-02
  2.570045e-02
  2.254812e-02
  2.298637e-02
  2.934788e-02
  6.029437e-02
  1.886121e-01
  5.249017e-01
  8.025307e-01
  9.135909e-01
  9.493144e-01
  9.522648e-01
  9.262857e-01
  8.392058e-01
  6.091411e-01
  2.477473e-01
  7.884979e-02
  3.910707e-02
  3.643980e-02
  4.843541e-02
  6.882534e-02
  8.776168e-02
  1.098944e-01
  1.625449e-01
  2.298128e-01
  2.435919e-01
  1.870613e-01
  1.011292e-01
  5.207197e-02
  3.637974e-02
  3.127667e-02
  2.718018e-02
  2.242123e-02
  1.823392e-02
  1.566605e-02
  1.599606e-02
  2.344942e-02
  5.082299e-02
  1.328802e-01
  3.404875e-01
  6.719876e-01
  8.738079e-01
  8.026430e-01
  9.143063e-01
  9.573134e-01
  9.644662e-01
  9.240856e-01
  7.334234e-01
  2.703141e-01
  8.112953e-02
  3.563902e-02
  2.443379e-02
  2.523053e-02
  4.928536e-02
  1.556168e-01
  4.584795e-01
  7.878122e-01
  9.263215e-01
  9.699597e-01
  9.805258e-01
  9.702783e-01
  9.025307e-01
  6.387603e-01
  1.894705e-01
  5.502096e-02
  2.714395e-02
  2.159653e-02
  2.084023e-02
  2.280203e-02
  3.246743e-02
  6.949789e-02
  1.790583e-01
  3.808653e-01
  6.103464e-01
  7.266934e-01
  7.380541e-01
  6.513296e-01
  4.428388e-01
  2.224333e-01
  9.030647e-02
  4.374532e-02
  3.742574e-02
  5.594843e-02
  1.166036e-01
  2.114968e-01
  2.655874e-01
  2.431941e-01
  1.657578e-01
  1.073917e-01
  8.351087e-02
  6.577764e-02
  5.069096e-02
  4.771859e-02
  5.516496e-02
  5.992414e-02
  5.327416e-02
  3.865676e-02
  2.629428e-02
  1.935392e-02
  1.575858e-02
  1.490395e-02
  1.942211e-02
  3.881274e-02
  1.003412e-01
  2.637066e-01
  5.643065e-01
  3.711088e-01
  6.174013e-01
  7.528703e-01
  7.760469e-01
  6.807758e-01
  4.017161e-01
  1.387631e-01
  5.217236e-02
  2.928151e-02
  2.445979e-02
  3.664923e-02
  1.096006e-01
  3.811951e-01
  7.766110e-01
  9.397165e-01
  9.858611e-01
  9.977649e-01
  9.999000e-01
  9.974266e-01
  9.629393e-01
  7.833306e-01
  2.549088e-01
  6.631732e-02
  2.767353e-02
  2.041210e-02
  1.915685e-02
  1.949816e-02
  2.190603e-02
  3.039406e-02
  5.388058e-02
  1.000302e-01
  1.617007e-01
  2.046947e-01
  2.103404e-01
  1.768636e-01
  1.176326e-01
  6.680158e-02
  4.007938e-02
  3.395293e-02
  4.776176e-02
  1.166484e-01
  3.564916e-01
  6.676723e-01
  7.739283e-01
  6.993641e-01
  4.104257e-01
  1.423836e-01
  6.297901e-02
  4.648235e-02
  5.392318e-02
  9.296033e-02
  1.612573e-01
  2.017002e-01
  1.762871e-01
  1.055913e-01
  5.097337e-02
  2.843422e-02
  1.994029e-02
  1.615744e-02
  1.492619e-02
  1.785754e-02
  3.156444e-02
  7.346701e-02
  1.771468e-01
  9.563968e-02
  1.662349e-01
  2.246829e-01
  2.415487e-01
  2.024472e-01
  1.210997e-01
  5.763755e-02
  3.262767e-02
  2.455697e-02
  2.741425e-02
  6.343008e-02
  2.368024e-01
  6.803586e-01
  9.193089e-01
  9.832744e-01
  9.978183e-01
  9.999000e-01
  9.999000e-01
  9.995929e-01
  9.735428e-01
  8.193111e-01
  2.781143e-01
  6.917834e-02
  2.661775e-02
  1.896038e-02
  1.773843e-02
  1.775446e-02
  1.833931e-02
  2.012035e-02
  2.460173e-02
  3.306380e-02
  4.426289e-02
  5.264182e-02
  5.426910e-02
  4.869529e-02
  3.904606e-02
  3.133789e-02
  2.888089e-02
  3.453838e-02
  6.596464e-02
  2.119852e-01
  6.715393e-01
  9.133587e-01
  9.639835e-01
  9.216292e-01
  6.968171e-01
  2.279893e-01
  7.620578e-02
  5.510161e-02
  9.965906e-02
  2.766107e-01
  5.557354e-01
  6.886582e-01
  6.175510e-01
  3.558342e-01
  1.270921e-01
  4.840436e-02
  2.680563e-02
  1.983453e-02
  1.674606e-02
  1.565924e-02
  1.756468e-02
  2.610688e-02
  4.885843e-02
  3.177323e-02
  4.534700e-02
  5.775700e-02
  6.263292e-02
  5.647380e-02
  4.227993e-02
  3.001367e-02
  2.374086e-02
  2.254587e-02
  3.501719e-02
  1.129710e-01
  4.428400e-01
  8.493124e-01
  9.696543e-01
  9.954195e-01
  9.999000e-01
  9.999000e-01
  9.999000e-01
  9.979165e-01
  9.695963e-01
  8.080665e-01
  2.639155e-01
  6.403136e-02
  2.418231e-02
  1.735036e-02
  1.648687e-02
  1.665791e-02
  1.707178e-02
  1.778751e-02
  1.911651e-02
  2.127038e-02
  2.392584e-02
  2.611131e-02
  2.707202e-02
  2.673318e-02
  2.580589e-02
  2.561523e-02
  2.764786e-02
  3.647956e-02
  7.663815e-02
  2.622119e-01
  7.789848e-01
  9.664624e-01
  9.987034e-01
  9.663454e-01
  7.810124e-01
  2.677832e-01
  8.693714e-02
  7.396454e-02