# vtk DataFile Version 2.0
time_10.vtk
ASCII
DATASET STRUCTURED_GRID
DIMENSIONS    64    64     1
POINTS    4096 float
  0.000000e+00   0.000000e+00   0.000000e+00
  0.000000e+00   1.000000e+00   0.000000e+00
  0.000000e+00   2.000000e+00   0.000000e+00
  0.000000e+00   3.000000e+00   0.000000e+00
  0.000000e+00   4.000000e+00   0.000000e+00
  0.000000e+00   5.000000e+00   0.000000e+00
  0.000000e+00   6.000000e+00   0.000000e+00
  0.000000e+00   7.000000e+00   0.000000e+00
  0.000000e+00   8.000000e+00   0.000000e+00
  0.000000e+00   9.000000e+00   0.000000e+00
  0.000000e+00   1.000000e+01   0.000000e+00
  0.000000e+00   1.100000e+01   0.000000e+00
  0.000000e+00   1.200000e+01   0.000000e+00
  0.000000e+00   1.300000e+01   0.000000e+00
  0.000000e+00   1.400000e+01   0.000000e+00
  0.000000e+00   1.500000e+01   0.000000e+00
  0.000000e+00   1.600000e+01   0.000000e+00
  0.000000e+00   1.700000e+01   0.000000e+00
  0.000000e+00   1.800000e+01   0.000000e+00
  0.000000e+00   1.900000e+01   0.000000e+00
  0.000000e+00   2.000000e+01   0.000000e+00
  0.000000e+00   2.100000e+01   0.000000e+00
  0.000000e+00   2.200000e+01   0.000000e+00
  0.000000e+00   2.300000e+01   0.000000e+00
  0.000000e+00   2.400000e+01   0.000000e+00
  0.000000e+00   2.500000e+01   0.000000e+00
  0.000000e+00   2.600000e+01   0.000000e+00
  0.000000e+00   2.700000e+01   0.000000e+00
  0.000000e+00   2.800000e+01   0.000000e+00
  0.000000e+00   2.900000e+01   0.000000e+00
  0.000000e+00   3.000000e+01   0.000000e+00
  0.000000e+00   3.100000e+01   0.000000e+00
  0.000000e+00   3.200000e+01   0.000000e+00
  0.000000e+00   3.300000e+01   0.000000e+00
  0.000000e+00   3.400000e+01   0.000000e+00
  0.000000e+00   3.500000e+01   0.000000e+00
  0.000000e+00   3.600000e+01   0.000000e+00
  0.000000e+00   3.700000e+01   0.000000e+00
  0.000000e+00   3.800000e+01   0.000000e+00
  0.000000e+00   3.900000e+01   0.000000e+00
  0.000000e+00   4.000000e+01   0.000000e+00
  0.000000e+00   4.100000e+01   0.000000e+00
  0.000000e+00   4.200000e+01   0.000000e+00
  0.000000e+00   4.300000e+01   0.000000e+00
  0.000000e+00   4.400000e+01   0.000000e+00
  0.000000e+00   4.500000e+01   0.000000e+00
  0.000000e+00   4.600000e+01   0.000000e+00
  0.000000e+00   4.700000e+01   0.000000e+00
  0.000000e+00   4.800000e+01   0.000000e+00
  0.000000e+00   4.900000e+01   0.000000e+00
  0.000000e+00   5.000000e+01   0.000000e+00
  0.000000e+00   5.100000e+01   0.000000e+00
  0.000000e+00   5.200000e+01   0.000000e+00
  0.000000e+00   5.300000e+01   0.000000e+00
  0.000000e+00   5.400000e+01   0.000000e+00
  0.000000e+00   5.500000e+01   0.000000e+00
  0.000000e+00   5.600000e+01   0.000000e+00
  0.000000e+00   5.700000e+01   0.000000e+00
  0.000000e+00   5.800000e+01   0.000000e+00
  0.000000e+00   5.900000e+01   0.000000e+00
  0.000000e+00   6.000000e+01   0.000000e+00
  0.000000e+00   6.100000e+01   0.000000e+00
  0.000000e+00   6.200000e+01   0.000000e+00
  0.000000e+00   6.300000e+01   0.000000e+00
  1.000000e+00   0.000000e+00   0.000000e+00
  1.000000e+00   1.000000e+00   0.000000e+00
  1.000000e+00   2.000000e+00   0.000000e+00
  1.000000e+00   3.000000e+00   0.000000e+00
  1.000000e+00   4.000000e+00   0.000000e+00
  1.000000e+00   5.000000e+00   0.000000e+00
  1.000000e+00   6.000000e+00   0.000000e+00
  1.000000e+00   7.000000e+00   0.000000e+00
  1.000000e+00   8.000000e+00   0.000000e+00
  1.000000e+00   9.000000e+00   0.000000e+00
  1.000000e+00   1.000000e+01   0.000000e+00
  1.000000e+00   1.100000e+01   0.000000e+00
  1.000000e+00   1.200000e+01   0.000000e+00
  1.000000e+00   1.300000e+01   0.000000e+00
  1.000000e+00   1.400000e+01   0.000000e+00
  1.000000e+00   1.500000e+01   0.000000e+00
  1.000000e+00   1.600000e+01   0.000000e+00
  1.000000e+00   1.700000e+01   0.000000e+00
  1.000000e+00   1.800000e+01   0.000000e+00
  1.000000e+00   1.900000e+01   0.000000e+00
  1.000000e+00   2.000000e+01   0.000000e+00
  1.000000e+00   2.100000e+01   0.000000e+00
  1.000000e+00   2.200000e+01   0.000000e+00
  1.000000e+00   2.300000e+01   0.000000e+00
  1.000000e+00   2.400000e+01   0.000000e+00
  1.000000e+00   2.500000e+01   0.000000e+00
  1.000000e+00   2.600000e+01   0.000000e+00
  1.000000e+00   2.700000e+01   0.000000e+00
  1.000000e+00   2.800000e+01   0.000000e+00
  1.000000e+00   2.900000e+01   0.000000e+00
  1.000000e+00   3.000000e+01   0.000000e+00
  1.000000e+00   3.100000e+01   0.000000e+00
  1.000000e+00   3.200000e+01   0.000000e+00
  1.000000e+00   3.300000e+01   0.000000e+00
  1.000000e+00   3.400000e+01   0.000000e+00
  1.000000e+00   3.500000e+01   0.000000e+00
  1.000000e+00   3.600000e+01   0.000000e+00
  1.000000e+00   3.700000e+01   0.000000e+00
  1.000000e+00   3.800000e+01   0.000000e+00
  1.000000e+00   3.900000e+01   0.000000e+00
  1.000000e+00   4.000000e+01   0.000000e+00
  1.000000e+00   4.100000e+01   0.000000e+00
  1.000000e+00   4.200000e+01   0.000000e+00
  1.000000e+00   4.300000e+01   0.000000e+00
  1.000000e+00   4.400000e+01   0.000000e+00
  1.000000e+00   4.500000e+01   0.000000e+00
  1.000000e+00   4.600000e+01   0.000000e+00
  1.000000e+00   4.700000e+01   0.000000e+00
  1.000000e+00   4.800000e+01   0.000000e+00
  1.000000e+00   4.900000e+01   0.000000e+00
  1.000000e+00   5.000000e+01   0.000000e+00
  1.000000e+00   5.100000e+01   0.000000e+00
  1.000000e+00   5.200000e+01   0.000000e+00
  1.000000e+00   5.300000e+01   0.000000e+00
  1.000000e+00   5.400000e+01   0.000000e+00
  1.000000e+00   5.500000e+01   0.000000e+00
  1.000000e+00   5.600000e+01   0.000000e+00
  1.000000e+00   5.700000e+01   0.000000e+00
  1.000000e+00   5.800000e+01   0.000000e+00
  1.000000e+00   5.900000e+01   0.000000e+00
  1.000000e+00   6.000000e+01   0.000000e+00
  1.000000e+00   6.100000e+01   0.000000e+00
  1.000000e+00   6.200000e+01   0.000000e+00
  1.000000e+00   6.300000e+01   0.000000e+00
  2.000000e+00   0.000000e+00   0.000000e+00
  2.000000e+00   1.000000e+00   0.000000e+00
  2.000000e+00   2.000000e+00   0.000000e+00
  2.000000e+00   3.000000e+00   0.000000e+00
  2.000000e+00   4.000000e+00   0.000000e+00
  2.000000e+00   5.000000e+00   0.000000e+00
  2.000000e+00   6.000000e+00   0.000000e+00
  2.000000e+00   7.000000e+00   0.000000e+00
  2.000000e+00   8.000000e+00   0.000000e+00
  2.000000e+00   9.000000e+00   0.000000e+00
  2.000000e+00   1.000000e+01   0.000000e+00
  2.000000e+00   1.100000e+01   0.000000e+00
  2.000000e+00   1.200000e+01   0.000000e+00
  2.000000e+00   1.300000e+01   0.000000e+00
  2.000000e+00   1.400000e+01   0.000000e+00
  2.000000e+00   1.500000e+01   0.000000e+00
  2.000000e+00   1.600000e+01   0.000000e+00
  2.000000e+00   1.700000e+01   0.000000e+00
  2.000000e+00   1.800000e+01   0.000000e+00
  2.000000e+00   1.900000e+01   0.000000e+00
  2.000000e+00   2.000000e+01   0.000000e+00
  2.000000e+00   2.100000e+01   0.000000e+00
  2.000000e+00   2.200000e+01   0.000000e+00
  2.000000e+00   2.300000e+01   0.000000e+00
  2.000000e+00   2.400000e+01   0.000000e+00
  2.000000e+00   2.500000e+01   0.000000e+00
  2.000000e+00   2.600000e+01   0.000000e+00
  2.000000e+00   2.700000e+01   0.000000e+00
  2.000000e+00   2.800000e+01   0.000000e+00
  2.000000e+00   2.900000e+01   0.000000e+00
  2.000000e+00   3.000000e+01   0.000000e+00
  2.000000e+00   3.100000e+01   0.000000e+00
  2.000000e+00   3.200000e+01   0.000000e+00
  2.000000e+00   3.300000e+01   0.000000e+00
  2.000000e+00   3.400000e+01   0.000000e+00
  2.000000e+00   3.500000e+01   0.000000e+00
  2.000000e+00   3.600000e+01   0.000000e+00
  2.000000e+00   3.700000e+01   0.000000e+00
  2.000000e+00   3.800000e+01   0.000000e+00
  2.000000e+00   3.900000e+01   0.000000e+00
  2.000000e+00   4.000000e+01   0.000000e+00
  2.000000e+00   4.100000e+01   0.000000e+00
  2.000000e+00   4.200000e+01   0.000000e+00
  2.000000e+00   4.300000e+01   0.000000e+00
  2.000000e+00   4.400000e+01   0.000000e+00
  2.000000e+00   4.500000e+01   0.000000e+00
  2.000000e+00   4.600000e+01   0.000000e+00
  2.000000e+00   4.700000e+01   0.000000e+00
  2.000000e+00   4.800000e+01   0.000000e+00
  2.000000e+00   4.900000e+01   0.000000e+00
  2.000000e+00   5.000000e+01   0.000000e+00
  2.000000e+00   5.100000e+01   0.000000e+00
  2.000000e+00   5.200000e+01   0.000000e+00
  2.000000e+00   5.300000e+01   0.000000e+00
  2.000000e+00   5.400000e+01   0.000000e+00
  2.000000e+00   5.500000e+01   0.000000e+00
  2.000000e+00   5.600000e+01   0.000000e+00
  2.000000e+00   5.700000e+01   0.000000e+00
  2.000000e+00   5.800000e+01   0.000000e+00
  2.000000e+00   5.900000e+01   0.000000e+00
  2.000000e+00   6.000000e+01   0.000000e+00
  2.000000e+00   6.100000e+01   0.000000e+00
  2.000000e+00   6.200000e+01   0.000000e+00
  2.000000e+00   6.300000e+01   0.000000e+00
  3.000000e+00   0.000000e+00   0.000000e+00
  3.000000e+00   1.000000e+00   0.000000e+00
  3.000000e+00   2.000000e+00   0.000000e+00
  3.000000e+00   3.000000e+00   0.000000e+00
  3.000000e+00   4.000000e+00   0.000000e+00
  3.000000e+00   5.000000e+00   0.000000e+00
  3.000000e+00   6.000000e+00   0.000000e+00
  3.000000e+00   7.000000e+00   0.000000e+00
  3.000000e+00   8.000000e+00   0.000000e+00
  3.000000e+00   9.000000e+00   0.000000e+00
  3.000000e+00   1.000000e+01   0.000000e+00
  3.000000e+00   1.100000e+01   0.000000e+00
  3.000000e+00   1.200000e+01   0.000000e+00
  3.000000e+00   1.300000e+01   0.000000e+00
  3.000000e+00   1.400000e+01   0.000000e+00
  3.000000e+00   1.500000e+01   0.000000e+00
  3.000000e+00   1.600000e+01   0.000000e+00
  3.000000e+00   1.700000e+01   0.000000e+00
  3.000000e+00   1.800000e+01   0.000000e+00
  3.000000e+00   1.900000e+01   0.000000e+00
  3.000000e+00   2.000000e+01   0.000000e+00
  3.000000e+00   2.100000e+01   0.000000e+00
  3.000000e+00   2.200000e+01   0.000000e+00
  3.000000e+00   2.300000e+01   0.000000e+00
  3.000000e+00   2.400000e+01   0.000000e+00
  3.000000e+00   2.500000e+01   0.000000e+00
  3.000000e+00   2.600000e+01   0.000000e+00
[...]
POINT_DATA  4096
SCALARS CON float 1
LOOKUP_TABLE default
  1.050702e-01
  1.165663e-01
  3.439708e-01
  8.258518e-01
  9.664310e-01
  9.657598e-01
  8.242261e-01
  3.529120e-01
  1.405691e-01
  2.012121e-01
  5.151830e-01
  7.081510e-01
  5.654764e-01
  2.124194e-01
  7.997817e-02
  5.846219e-02
  8.393083e-02
  1.398735e-01
  1.883311e-01
  1.685261e-01
  1.132960e-01
  8.289585e-02
  7.694893e-02
  8.830870e-02
  1.082152e-01
  1.219913e-01
  1.385019e-01
  2.198154e-01
  5.080054e-01
  8.271703e-01
  9.388538e-01
  9.636024e-01
  9.509147e-01
  8.855819e-01
  6.893623e-01
  3.299570e-01
  1.160509e-01
  5.581000e-02
  6.756930e-02
  1.233557e-01
  1.859883e-01
  1.908856e-01
  1.572881e-01
  2.065202e-01
  3.859479e-01
  5.311617e-01
  5.381358e-01
  4.208372e-01
  2.526933e-01
  1.166229e-01
  6.114224e-02
  4.551686e-02
  6.522988e-02
  2.137889e-01
  7.127129e-01
  9.101532e-01
  8.823931e-01
  6.061428e-01
  2.035527e-01
  9.740025e-02
  1.219841e-01
  2.249674e-01
  2.802925e-01
  1.944744e-01
  1.351043e-01
  1.072989e-01
  2.461845e-01
  6.750643e-01
  8.774431e-01
  8.722612e-01
  6.556298e-01
  2.288733e-01
  8.830556e-02
  1.030756e-01
  2.282975e-01
  3.541503e-01
  2.737691e-01
  1.217660e-01
  6.044905e-02
  5.273427e-02
  8.659315e-02
  1.774259e-01
  2.806167e-01
  2.652292e-01
  1.669319e-01
  1.165931e-01
  1.135616e-01
  1.249568e-01
  1.239639e-01
  1.052882e-01
  8.767178e-02
  1.116882e-01
  2.627270e-01
  6.038537e-01
  8.328187e-01
  9.252049e-01
  9.557445e-01
  9.515801e-01
  8.887317e-01
  6.795569e-01
  3.162038e-01
  1.168009e-01
  5.816433e-02
  5.510169e-02
  7.070258e-02
  8.878073e-02
  1.366809e-01
  3.411555e-01
  7.416133e-01
  8.882969e-01
  9.041579e-01
  8.431931e-01
  6.384685e-01
  2.559587e-01
  8.441195e-02
  4.313841e-02
  5.687803e-02
  1.937942e-01
  6.632992e-01
  8.498703e-01
  7.422262e-01
  3.447332e-01
  1.112508e-01
  6.617459e-02
  9.777185e-02
  1.999568e-01
  2.866027e-01
  2.357850e-01
  3.458858e-01
  1.504886e-01
  1.502901e-01
  3.352166e-01
  5.397599e-01
  5.225938e-01
  2.972477e-01
  1.090226e-01
  5.769034e-02
  8.185244e-02
  1.803856e-01
  2.922812e-01
  2.336601e-01
  1.143071e-01
  6.633707e-02
  8.003695e-02
  1.841356e-01
  4.303271e-01
  6.318493e-01
  5.523075e-01
  2.939628e-01
  2.055340e-01
  2.709321e-01
  3.570368e-01
  3.621989e-01
  2.781332e-01
  1.604350e-01
  9.051391e-02
  1.082065e-01
  2.290838e-01
  4.539455e-01
  6.918049e-01
  8.285771e-01
  9.015743e-01
  9.209670e-01
  8.658320e-01
  6.631744e-01
  3.355315e-01
  1.459341e-01
  7.543430e-02
  5.619470e-02
  6.406314e-02
  1.276149e-01
  3.965575e-01
  8.469659e-01
  9.716322e-01
  9.906768e-01
  9.692080e-01
  8.534027e-01
  4.478788e-01
  1.323329e-01
  5.684715e-02
  7.347894e-02
  2.358671e-01
  6.679463e-01
  7.910151e-01
  5.621875e-01
  1.769797e-01
  6.224356e-02
  6.436327e-02
  1.607662e-01
  4.452476e-01
  6.614024e-01
  6.070856e-01
  6.906435e-01
  2.671843e-01
  1.181644e-01
  1.285325e-01
  1.733387e-01
  1.636606e-01
  1.018300e-01
  5.650144e-02
  5.908328e-02
  1.364084e-01
  3.484058e-01
  5.437712e-01
  4.335344e-01
  1.890169e-01
  1.123189e-01
  1.837889e-01
  4.456033e-01
  7.527573e-01
  8.354392e-01
  6.724474e-01
  3.523003e-01
  3.237429e-01
  6.090819e-01
  8.034791e-01
  8.357563e-01
  7.432462e-01
  4.581743e-01
  1.614580e-01
  7.299864e-02
  7.653826e-02
  1.286805e-01
  2.291038e-01
  3.986041e-01
  6.294633e-01
  7.911379e-01
  8.674589e-01
  8.497560e-01
  7.081466e-01
  4.469930e-01
  2.300032e-01
  1.159038e-01
  7.498230e-02
  1.091329e-01
  3.315874e-01
  8.031994e-01
  9.617171e-01
  9.949270e-01
  9.850256e-01
  8.939307e-01
  5.235658e-01
  1.603245e-01
  7.885051e-02
  1.326923e-01
  4.148725e-01
  7.797767e-01
  8.168753e-01
  5.264322e-01
  1.406671e-01
  5.418680e-02
  8.617014e-02
  2.859489e-01
  7.489539e-01
  9.135903e-01
  8.946884e-01
  8.395361e-01
  3.747247e-01
  1.245943e-01
  7.614908e-02
  7.621612e-02
  7.563488e-02
  6.834387e-02
  7.326788e-02
  1.319804e-01
  3.359044e-01
  6.873456e-01
  8.258546e-01
  6.970928e-01
  3.265577e-01
  2.283741e-01
  4.368394e-01
  7.559827e-01
  8.874160e-01
  8.356135e-01
  5.213730e-01
  2.388910e-01
  2.991435e-01
  7.162770e-01
  9.275254e-01
  9.707631e-01
  9.383892e-01
  7.603593e-01
  2.994910e-01
  9.254889e-02
  4.827973e-02
  4.778746e-02
  6.612563e-02
  1.094027e-01
  2.015033e-01
  3.785257e-01
  6.421526e-01
  8.205400e-01
  8.708632e-01
  8.114805e-01
  6.410934e-01
  3.622279e-01
  1.627583e-01
  1.053055e-01
  2.135127e-01
  5.980195e-01
  8.561994e-01
  9.351361e-01
  9.254078e-01
  7.934265e-01
  3.999130e-01
  1.374531e-01
  9.918131e-02
  2.294586e-01
  6.689367e-01
  8.952951e-01
  8.896104e-01
  6.395873e-01
  1.803575e-01
  6.769338e-02
  1.099634e-01
  3.784023e-01
  8.554828e-01
  9.783777e-01
  9.734460e-01
  8.442437e-01
  3.871288e-01
  1.265763e-01
  7.139855e-02
  7.631500e-02
  1.122983e-01
  1.678501e-01
  2.444405e-01
  4.103647e-01
  6.917464e-01
  8.712721e-01
  8.907329e-01
  7.312811e-01
  3.841405e-01
  3.605184e-01
  6.964730e-01
  8.932011e-01
  9.121898e-01
  7.428491e-01
  2.942723e-01
  1.189750e-01
  1.961540e-01
  6.172926e-01
  9.148964e-01
  9.877683e-01
  9.817933e-01
  8.658539e-01
  4.160506e-01
  1.229263e-01
  5.375100e-02
  4.205444e-02
  4.340970e-02
  4.911932e-02
  6.524887e-02
  1.153665e-01
  2.591786e-01
  5.660393e-01
  8.316566e-01
  9.170966e-01
  8.936935e-01
  7.494616e-01
  4.127805e-01
  1.518465e-01
  1.214224e-01
  2.580320e-01
  5.063343e-01
  6.714231e-01
  6.555102e-01
  4.481815e-01
  1.918370e-01
  9.019100e-02
  1.024177e-01
  2.826222e-01
  7.672623e-01
  9.393365e-01
  9.346689e-01
  7.483402e-01
  2.444703e-01
  8.534558e-02
  1.122571e-01
  3.618655e-01
  8.349191e-01
  9.687095e-01
  9.701944e-01
  6.891741e-01
  2.831725e-01
  1.103095e-01
  8.686902e-02
  1.476966e-01
  3.369161e-01
  5.749003e-01
  7.274958e-01
  8.203563e-01
  8.889340e-01
  8.950547e-01
  7.904594e-01
  5.177135e-01
  2.670172e-01
  3.487636e-01
  7.540080e-01
  9.172541e-01
  8.894030e-01
  6.117798e-01
  1.781322e-01
  6.580028e-02
  1.105825e-01
  3.879617e-01
  8.056267e-01
  9.484096e-01
  9.607306e-01
  8.471996e-01
  4.129508e-01
  1.310522e-01
  6.685842e-02
  6.504115e-02
  7.803598e-02
  7.877084e-02
  6.449963e-02
  5.594932e-02
  9.079427e-02
  2.488722e-01
  6.264567e-01
  8.862088e-01
  9.527550e-01
  9.139636e-01
  6.907285e-01
  2.422152e-01
  9.844322e-02
  9.953455e-02
  1.561154e-01
  2.085010e-01
  2.037833e-01
  1.416642e-01
  7.932515e-02
  5.785994e-02
  8.366232e-02
  2.356831e-01
  6.813519e-01
  9.011061e-01
  9.276184e-01
  7.842258e-01
  2.951045e-01
  9.709019e-02
  9.067773e-02
  2.414714e-01
  6.463702e-01
  8.447215e-01
  8.564968e-01
  3.026602e-01
  1.463448e-01
  9.228127e-02
  1.202919e-01
  2.981400e-01
  6.991688e-01
  8.835330e-01
  9.336195e-01
  9.380539e-01
  9.023305e-01
  7.667854e-01
  4.734573e-01
  2.139077e-01
  1.308949e-01
  2.397852e-01
  6.375479e-01
  8.509912e-01
  8.057846e-01
  4.539269e-01
  1.341713e-01
  5.631043e-02
  6.861385e-02
  1.897164e-01
  5.165165e-01
  7.633891e-01
  8.038360e-01
  6.501924e-01
  2.768960e-01
  1.105219e-01
  8.914466e-02
  1.428185e-01
  2.356842e-01
  2.583560e-01
  1.909779e-01
  9.866651e-02
  5.944809e-02
  1.034504e-01
  3.258610e-01
  7.366242e-01
  9.195525e-01
  9.353048e-01
  7.741958e-01
  2.961012e-01
  1.038458e-01
  6.773221e-02
  7.477693e-02
  9.128064e-02
  9.429102e-02
  7.671255e-02
  5.520439e-02
  4.556097e-02
  5.714004e-02
  1.289616e-01
  3.766002e-01
  6.913830e-01
  8.188884e-01
  7.435470e-01
  3.346940e-01
  1.144288e-01
  7.074081e-02
  1.123139e-01
  2.544595e-01
  4.033410e-01
  4.286158e-01
  1.218441e-01
  9.548528e-02
  9.270238e-02
  1.479613e-01
  3.927820e-01
  8.156361e-01
  9.456442e-01
  9.587755e-01
  9.156691e-01
  7.689003e-01
  4.465848e-01
  1.827699e-01
  8.483557e-02
  7.449766e-02
  1.413559e-01
  3.616681e-01
  5.969140e-01
  5.707525e-01
  3.084249e-01
  1.443355e-01
  9.329346e-02
  7.836991e-02
  9.661871e-02
  1.801889e-01
  2.842719e-01
  3.161855e-01
  2.418789e-01
  1.283235e-01
  8.959877e-02
  1.377621e-01
  3.578344e-01
  6.745199e-01
  7.531286e-01
  6.189003e-01
  3.119380e-01
  1.155606e-01
  7.106382e-02
  1.484932e-01
  4.289096e-01
  7.413412e-01
  8.164554e-01
  6.535487e-01
  2.542413e-01
  1.020542e-01
  7.319289e-02
  8.980212e-02
  1.379792e-01
  1.720994e-01
  1.539115e-01
  1.065599e-01
  6.860834e-02
  5.120229e-02
  6.203775e-02
  1.278198e-01
  2.780977e-01
  5.126190e-01
  6.503111e-01
  4.395417e-01
  1.939666e-01
  8.828194e-02
  6.697492e-02
  9.025959e-02
  1.260741e-01
  1.403898e-01
  1.118375e-01
  1.277747e-01
  1.268158e-01
  1.524530e-01
  3.287188e-01
  7.020985e-01
  8.513329e-01
  8.498248e-01
  7.270679e-01
  4.341308e-01
  1.772703e-01
  7.872118e-02
  6.054677e-02
  7.789271e-02
  1.161598e-01
  1.828121e-01
  2.593956e-01
  2.799978e-01
  2.663090e-01
  2.895375e-01
  2.769232e-01
  2.096466e-01
  1.260609e-01
  9.147639e-02
  9.736667e-02
  1.036162e-01
  9.286086e-02
  7.752232e-02
  8.919991e-02
  1.907247e-01
  5.551035e-01
  8.694860e-01
  9.374642e-01
  8.857859e-01
  6.718608e-01
  3.011658e-01
  1.229228e-01
  9.820720e-02
  1.756235e-01
  3.248946e-01
  4.012082e-01
  3.045140e-01
  1.490840e-01
  9.027945e-02
  9.612188e-02
  1.817314e-01
  3.981418e-01
  5.565146e-01
  5.290869e-01
  3.740727e-01
  2.211223e-01
  1.154673e-01
  6.377905e-02
  5.828058e-02
  1.097399e-01
  3.006363e-01
  6.632775e-01
  6.941118e-01
  4.610374e-01
  1.931133e-01
  7.841548e-02
  5.508084e-02
  6.265600e-02
  8.412077e-02
  2.648381e-01
  3.332429e-01
  2.793499e-01
  1.778902e-01
  1.892893e-01
  3.272429e-01
  4.459097e-01
  4.327221e-01
  2.999892e-01
  1.557347e-01
  7.868208e-02
  6.283982e-02
  9.068340e-02
  1.632810e-01
  2.185905e-01
  2.011125e-01
  1.691586e-01
  2.065801e-01
  4.022249e-01
  6.856365e-01
  7.568579e-01
  6.370286e-01
  3.327718e-01
  1.218306e-01
  6.709133e-02
  6.383046e-02
  7.724379e-02
  9.575541e-02
  1.236286e-01
  2.219251e-01
  5.515425e-01
  8.469532e-01
  9.306866e-01
  9.261464e-01
  8.415964e-01
  6.068687e-01
  3.184174e-01
  1.760979e-01
  1.306891e-01
  1.386104e-01
  1.506756e-01
  1.275769e-01
  9.254835e-02
  8.414737e-02
  1.292654e-01
  3.372002e-01
  7.469537e-01
  8.924035e-01
  8.972865e-01
  8.298703e-01
  6.735196e-01
  3.955714e-01
  1.735836e-01
  7.785657e-02
  9.026807e-02
  2.802142e-01
  7.542349e-01
  8.830798e-01
  7.872318e-01
  4.338060e-01
  1.336231e-01
  5.979922e-02
  6.891492e-02
  1.413129e-01
  6.954761e-01
  7.868311e-01
  6.533867e-01
  2.895460e-01
  1.385196e-01
  1.326085e-01
  1.624956e-01
  1.706808e-01
  1.354741e-01
  8.885482e-02
  6.664494e-02
  8.551430e-02
  1.879644e-01
  4.465456e-01
  5.820479e-01
  4.310202e-01
  2.139569e-01
  2.156479e-01
  5.172219e-01
  8.597534e-01
  9.411471e-01
  8.925996e-01
  6.431799e-01
  2.137437e-01
  8.628813e-02
  9.072188e-02
  1.669208e-01
  2.563227e-01
  2.974423e-01
  3.079841e-01
  3.997490e-01
  6.053900e-01
  7.311147e-01
  7.758878e-01
  7.865357e-01
  7.652841e-01
  6.611017e-01
  4.620193e-01
  2.460404e-01
  1.258862e-01
  9.126810e-02
  7.890633e-02
  7.175334e-02
  7.844992e-02
  1.380567e-01
  3.944403e-01
  8.335587e-01
  9.613589e-01
  9.806685e-01
  9.677675e-01
  9.224468e-01
  7.923596e-01
  4.836471e-01
  1.781881e-01
  1.273045e-01
  3.255454e-01
  8.121528e-01
  9.478509e-01
  9.124798e-01
  6.459367e-01
  1.980528e-01
  8.436169e-02
  1.379561e-01
  3.828882e-01
  9.103724e-01
  9.420905e-01
  8.224979e-01
  3.753087e-01
  1.347793e-01
  9.698246e-02
  1.350320e-01
  1.999773e-01
  2.047036e-01
  1.443095e-01
  9.666826e-02
  1.223317e-01
  3.080241e-01
  7.244046e-01
  8.445163e-01
  6.678554e-01
  2.779282e-01
  2.081564e-01
  4.898323e-01
  8.703594e-01
  9.702994e-01
  9.539816e-01
  7.772306e-01
  2.910329e-01
  1.301393e-01
  2.045656e-01
  4.963857e-01
  7.226084e-01
  7.452718e-01
  5.756467e-01
  2.892024e-01
  2.144979e-01
  2.269335e-01
  2.748483e-01
  4.105392e-01
  6.717123e-01
  8.133496e-01
  7.694350e-01
  5.090448e-01
  1.868982e-01
  8.784005e-02
  6.709123e-02
  6.487574e-02
  7.304005e-02
  1.174115e-01
  3.127099e-01
  7.465943e-01
  9.261442e-01
  9.747177e-01
  9.869858e-01
  9.813915e-01
  9.365102e-01
  7.518320e-01
  3.162665e-01
  1.726566e-01
  3.346321e-01
  7.871046e-01
  9.346996e-01
  9.089885e-01
  6.603845e-01
  2.204781e-01
  1.353817e-01
  3.111033e-01
  7.111728e-01
  9.671559e-01
  9.616275e-01
  8.235543e-01
  3.551055e-01
  1.289429e-01
  1.220631e-01
  2.704916e-01
  5.222965e-01
  5.785628e-01
  3.979226e-01
  1.861812e-01
  1.444208e-01
  3.021723e-01
  6.962189e-01
  8.179143e-01
  6.381338e-01
  2.528636e-01
  1.614248e-01
  3.498529e-01
  7.712272e-01
  9.263326e-01
  9.224116e-01
  7.406278e-01
  2.936017e-01
  1.793455e-01
  3.896791e-01
  7.945352e-01
  9.329741e-01
  9.274823e-01
  7.548629e-01
  2.782947e-01
  9.715946e-02
  6.143085e-02
  7.191932e-02
  1.668635e-01
  5.135242e-01
  8.299407e-01
  8.789110e-01
  7.013765e-01
  2.511145e-01
  9.461586e-02
  6.748764e-02
  7.435139e-02
  9.214369e-02
  1.179426e-01
  2.068175e-01
  4.807866e-01
  7.549606e-01
  8.859810e-01
  9.431606e-01
  9.619785e-01
  9.382833e-01
  7.858971e-01
  3.501509e-01
  1.665568e-01
  2.426489e-01
  5.807772e-01
  7.733626e-01
  7.390180e-01
  4.635718e-01
  2.003223e-01
  2.476566e-01
  5.972275e-01
  8.815747e-01
  9.702827e-01
  9.190776e-01
  6.950745e-01
  2.509424e-01
  1.095356e-01
  1.680341e-01
  4.981150e-01
  8.285730e-01
  8.832678e-01
  7.405441e-01
  3.490549e-01
  1.508309e-01
  1.808731e-01
  3.737405e-01
  5.007722e-01
  3.892008e-01
  1.913559e-01
  1.299755e-01
  2.079764e-01
  4.946587e-01
  7.186878e-01
  7.192937e-01
  4.889009e-01
  2.051652e-01
  1.931743e-01
  5.116877e-01
  8.859169e-01
  9.779697e-01
  9.619461e-01
  7.918810e-01
  2.744208e-01
  7.726748e-02
  3.729460e-02
  4.880463e-02
  1.582010e-01
  5.444035e-01
  8.572504e-01
  9.124495e-01
  7.661583e-01
  2.786904e-01
  1.000713e-01
  8.402105e-02
  1.372959e-01
  2.228780e-01
  2.553134e-01
  2.332820e-01
  2.418986e-01
  3.585250e-01
  5.609748e-01
  7.251166e-01
  7.939718e-01
  7.695774e-01
  5.791264e-01
  2.409851e-01
  1.174796e-01
  1.248326e-01
  2.233358e-01
  3.133295e-01
  2.993205e-01
  2.063704e-01
  1.942900e-01
  4.477311e-01
  8.132215e-01
  9.481986e-01
  9.224784e-01
  7.657607e-01
  4.003249e-01
  1.327726e-01
  8.051283e-02
  1.725891e-01
  5.676309e-01
  8.958902e-01
  9.540169e-01
  8.687746e-01
  5.060573e-01
  1.612564e-01
  1.009577e-01
  1.484462e-01
  2.267369e-01
  2.837554e-01
  2.642998e-01
  2.103044e-01
  1.701260e-01
  2.048410e-01
  2.667998e-01
  2.606874e-01
  1.789357e-01
  1.131834e-01
  1.648147e-01
  4.797219e-01
  8.619045e-01
  9.559003e-01
  9.238180e-01
  7.064337e-01
  2.316475e-01
  7.537675e-02
  5.460354e-02
  1.089528e-01
  3.398387e-01
  7.451157e-01
  9.175118e-01
  9.295318e-01
  7.683778e-01
  2.729151e-01
  1.063543e-01
  1.343468e-01
  3.485076e-01
  6.436727e-01
  7.099371e-01
  5.486130e-01
  2.572065e-01
  1.500207e-01
  1.673420e-01
  2.242645e-01
  2.722598e-01
  2.755156e-01
  2.126813e-01
  1.260508e-01
  9.044058e-02
  8.549103e-02
  9.954458e-02
  1.157447e-01
  1.167606e-01
  1.222595e-01
  2.327209e-01
  6.378978e-01
  9.010213e-01
  9.565998e-01
  7.352700e-01
  4.189325e-01
  1.590178e-01
  6.474878e-02
  5.638679e-02
  1.296195e-01
  4.455875e-01
  8.464800e-01
  9.470168e-01
  9.013966e-01
  6.114102e-01
  1.808348e-01
  7.825176e-02
  9.506119e-02
  2.093351e-01
  4.854686e-01
  6.399750e-01
  5.691286e-01
  3.300847e-01
  1.564014e-01
  1.113812e-01
  9.742825e-02
  8.256374e-02
  8.029958e-02
  1.275205e-01
  3.255905e-01
  6.817169e-01
  8.026892e-01
  7.292983e-01
  4.336557e-01
  1.490028e-01
  7.415804e-02
  9.421617e-02
  2.493643e-01
  6.672702e-01
  9.031769e-01
  9.596993e-01
  9.255228e-01
  7.102614e-01
  2.360545e-01
  1.077772e-01
  1.944630e-01
  5.910635e-01
  8.811338e-01
  9.279895e-01
  8.089097e-01
  3.919664e-01
  1.304340e-01
  7.065771e-02
  6.863712e-02
  8.055263e-02
  9.505778e-02
  1.120439e-01
  1.314775e-01
  1.418162e-01
  1.259066e-01
  9.714687e-02
  7.933741e-02
  7.763959e-02
  1.033709e-01
  2.362855e-01
  6.400929e-01
  8.660623e-01
  8.742655e-01
  3.223038e-01
  1.466115e-01
  6.865121e-02
  4.904417e-02
  5.391333e-02
  9.427957e-02
  2.812119e-01
  7.136207e-01
  8.998240e-01
  8.952663e-01
  6.554434e-01
  2.040065e-01
  8.317167e-02
  1.056694e-01
  3.042208e-01
  7.462238e-01
  8.964587e-01
  8.615712e-01
  6.045762e-01
  2.073176e-01
  8.721054e-02
  6.550653e-02
  7.160571e-02
  9.370773e-02
  1.263830e-01
  1.868830e-01
  2.940001e-01
  3.382450e-01
  2.766619e-01
  1.603244e-01
  8.410125e-02
  7.300273e-02
  1.281837e-01
  3.628137e-01
  8.026497e-01
  9.438614e-01
  9.506021e-01
  8.583949e-01
  5.351606e-01
  1.679224e-01
  9.242548e-02
  1.946222e-01
  6.149881e-01
  9.026173e-01
  9.519004e-01
  8.525845e-01
  4.409303e-01
  1.366364e-01
  5.702879e-02
  4.128389e-02
  4.788103e-02
  8.505560e-02
  1.897086e-01
  3.384001e-01
  4.160315e-01
  3.521121e-01
  2.043503e-01
  1.023766e-01
  7.520929e-02
  8.944213e-02
  1.690643e-01
  3.992804e-01
  5.919512e-01
  5.385875e-01
  1.074173e-01
  6.808392e-02
  6.670434e-02
  9.215266e-02
  1.179544e-01
  1.398110e-01
  2.311225e-01
  5.364114e-01
  7.946025e-01
  8.308910e-01
  6.065276e-01
  2.089823e-01
  9.534040e-02
  1.294495e-01
  3.921607e-01
  8.434922e-01
  9.572552e-01
  9.251146e-01
  6.855778e-01
  2.232528e-01
  8.293838e-02
  6.986822e-02
  1.159543e-01
  2.056517e-01
  2.547205e-01
  2.144730e-01
  1.554131e-01
  1.264997e-01
  1.011092e-01
  7.571021e-02
  6.247547e-02
  6.913859e-02
  1.183316e-01
  3.049236e-01
  6.868525e-01
  8.303294e-01
  8.052375e-01
  6.174103e-01
  2.726203e-01
  9.809017e-02
  7.174663e-02
  1.449069e-01
  4.349275e-01
  7.605112e-01
  8.263454e-01
  6.930864e-01
  3.140932e-01
  1.100383e-01
  5.408461e-02
  4.307236e-02
  6.407501e-02
  1.743518e-01
  4.948707e-01
  7.768018e-01
  8.541428e-01
  7.844332e-01
  4.951087e-01
  1.763179e-01
  8.736871e-02
  8.191019e-02
  1.112705e-01
  1.723154e-01
  2.114368e-01
  1.744656e-01
  6.199288e-02
  7.366860e-02
  1.490847e-01
  2.990983e-01
  4.137465e-01
  4.294175e-01
  4.068293e-01
  4.606271e-01
  5.865329e-01
  6.104215e-01
  4.075325e-01
  1.695363e-01
  9.725076e-02
  1.371895e-01
  4.042853e-01
  8.396168e-01
  9.349055e-01
  8.603995e-01
  5.408059e-01
  1.669194e-01
  7.415925e-02
  1.055816e-01
  2.853501e-01
  5.721979e-01
  6.561052e-01
  4.599451e-01
  1.816020e-01
  8.969409e-02
  7.059954e-02
  7.064907e-02
  7.243649e-02
  7.367305e-02
  8.849290e-02
  1.501975e-01
  2.839790e-01
  3.647027e-01
  3.282775e-01
  2.157107e-01
  1.077998e-01
  6.742981e-02
  7.952419e-02
  1.348381e-01
  2.639599e-01
  4.128248e-01
  4.092227e-01
  2.892042e-01
  1.453315e-01
  8.065455e-02
  6.558034e-02
  7.433763e-02
  1.352276e-01
  3.690385e-01
  7.702637e-01
  9.350070e-01
  9.685361e-01
  9.214252e-01
  6.837492e-01
  2.407113e-01
  1.072743e-01
  1.023420e-01
  1.259884e-01
  1.356629e-01
  1.150196e-01
  8.166429e-02
  6.876761e-02
  1.263193e-01
  3.787009e-01
  7.392223e-01
  8.613141e-01
  8.542092e-01
  7.496152e-01
  5.132541e-01
  3.380211e-01
  2.754326e-01
  1.937648e-01
  1.152242e-01
  8.672598e-02
  1.239894e-01
  3.426577e-01
  7.504888e-01
  8.130542e-01
  6.158922e-01
  2.621628e-01
  9.001348e-02
  7.116855e-02
  1.893696e-01
  5.838599e-01
  8.549843e-01
  8.881400e-01
  6.978644e-01
  2.480749e-01
  1.032548e-01
  1.008070e-01
  1.433843e-01
  1.681012e-01
  1.496854e-01
  1.161330e-01
  1.014882e-01
  1.105637e-01
  1.168210e-01
  1.031335e-01
  7.901704e-02
  6.649572e-02
  9.290957e-02
  1.876134e-01
  3.063744e-01
  3.796467e-01
  3.326281e-01
  1.955761e-01
  1.188626e-01
  8.851857e-02
  1.020024e-01
  1.519237e-01