# vtk DataFile Version 2.0
time_10.vtk
ASCII
DATASET STRUCTURED_GRID
DIMENSIONS    64    64     1
POINTS    4096 float
  0.000000e+00   0.000000e+00   0.000000e+00
  0.000000e+00   1.000000e+00   0.000000e+00
  0.000000e+00   2.000000e+00   0.000000e+00
  0.000000e+00   3.000000e+00   0.000000e+00
  0.000000e+00   4.000000e+00   0.000000e+00
  0.000000e+00   5.000000e+00   0.000000e+00
  0.000000e+00   6.000000e+00   0.000000e+00
  0.000000e+00   7.000000e+00   0.000000e+00
  0.000000e+00   8.000000e+00   0.000000e+00
  0.000000e+00   9.000000e+00   0.000000e+00
  0.000000e+00   1.000000e+01   0.000000e+00
  0.000000e+00   1.100000e+01   0.000000e+00
  0.000000e+00   1.200000e+01   0.000000e+00
  0.000000e+00   1.300000e+01   0.000000e+00
  0.000000e+00   1.400000e+01   0.000000e+00
  0.000000e+00   1.500000e+01   0.000000e+00
  0.000000e+00   1.600000e+01   0.000000e+00
  0.000000e+00   1.700000e+01   0.000000e+00
  0.000000e+00   1.800000e+01   0.000000e+00
  0.000000e+00   1.900000e+01   0.000000e+00
  0.000000e+00   2.000000e+01   0.000000e+00
  0.000000e+00   2.100000e+01   0.000000e+00
  0.000000e+00   2.200000e+01   0.000000e+00
  0.000000e+00   2.300000e+01   0.000000e+00
  0.000000e+00   2.400000e+01   0.000000e+00
  0.000000e+00   2.500000e+01   0.000000e+00
  0.000000e+00   2.600000e+01   0.000000e+00
  0.000000e+00   2.700000e+01   0.000000e+00
  0.000000e+00   2.800000e+01   0.000000e+00
  0.000000e+00   2.900000e+01   0.000000e+00
  0.000000e+00   3.000000e+01   0.000000e+00
  0.000000e+00   3.100000e+01   0.000000e+00
  0.000000e+00   3.200000e+01   0.000000e+00
  0.000000e+00   3.300000e+01   0.000000e+00
  0.000000e+00   3.400000e+01   0.000000e+00
  0.000000e+00   3.500000e+01   0.000000e+00
  0.000000e+00   3.600000e+01   0.000000e+00
  0.000000e+00   3.700000e+01   0.000000e+00
  0.000000e+00   3.800000e+01   0.000000e+00
  0.000000e+00   3.900000e+01   0.000000e+00
  0.000000e+00   4.000000e+01   0.000000e+00
  0.000000e+00   4.100000e+01   0.000000e+00
  0.000000e+00   4.200000e+01   0.000000e+00
  0.000000e+00   4.300000e+01   0.000000e+00
  0.000000e+00   4.400000e+01   0.000000e+00
  0.000000e+00   4.500000e+01   0.000000e+00
  0.000000e+00   4.600000e+01   0.000000e+00
  0.000000e+00   4.700000e+01   0.000000e+00
  0.000000e+00   4.800000e+01   0.000000e+00
  0.000000e+00   4.900000e+01   0.000000e+00
  0.000000e+00   5.000000e+01   0.000000e+00
  0.000000e+00   5.100000e+01   0.000000e+00
  0.000000e+00   5.200000e+01   0.000000e+00
  0.000000e+00   5.300000e+01   0.000000e+00
  0.000000e+00   5.400000e+01   0.000000e+00
  0.000000e+00   5.500000e+01   0.000000e+00
  0.000000e+00   5.600000e+01   0.000000e+00
  0.000000e+00   5.700000e+01   0.000000e+00
  0.000000e+00   5.800000e+01   0.000000e+00
  0.000000e+00   5.900000e+01   0.000000e+00
  0.000000e+00   6.000000e+01   0.000000e+00
  0.000000e+00   6.100000e+01   0.000000e+00
  0.000000e+00   6.200000e+01   0.000000e+00
  0.000000e+00   6.300000e+01   0.000000e+00
  1.000000e+00   0.000000e+00   0.000000e+00
  1.000000e+00   1.000000e+00   0.000000e+00
  1.000000e+00   2.000000e+00   0.000000e+00
  1.000000e+00   3.000000e+00   0.000000e+00
  1.000000e+00   4.000000e+00   0.000000e+00
  1.000000e+00   5.000000e+00   0.000000e+00
  1.000000e+00   6.000000e+00   0.000000e+00
  1.000000e+00   7.000000e+00   0.000000e+00
  1.000000e+00   8.000000e+00   0.000000e+00
  1.000000e+00   9.000000e+00   0.000000e+00
  1.000000e+00   1.000000e+01   0.000000e+00
  1.000000e+00   1.100000e+01   0.000000e+00
  1.000000e+00   1.200000e+01   0.000000e+00
  1.000000e+00   1.300000e+01   0.000000e+00
  1.000000e+00   1.400000e+01   0.000000e+00
  1.000000e+00   1.500000e+01   0.000000e+00
  1.000000e+00   1.600000e+01   0.000000e+00
  1.000000e+00   1.700000e+01   0.000000e+00
  1.000000e+00   1.800000e+01   0.000000e+00
  1.000000e+00   1.900000e+01   0.000000e+00
  1.000000e+00   2.000000e+01   0.000000e+00
  1.000000e+00   2.100000e+01   0.000000e+00
  1.000000e+00   2.200000e+01   0.000000e+00
  1.000000e+00   2.300000e+01   0.000000e+00
  1.000000e+00   2.400000e+01   0.000000e+00
  1.000000e+00   2.500000e+01   0.000000e+00
  1.000000e+00   2.600000e+01   0.000000e+00
  1.000000e+00   2.700000e+01   0.000000e+00
  1.000000e+00   2.800000e+01   0.000000e+00
  1.000000e+00   2.900000e+01   0.000000e+00
  1.000000e+00   3.000000e+01   0.000000e+00
  1.000000e+00   3.100000e+01   0.000000e+00
  1.000000e+00   3.200000e+01   0.000000e+00
  1.000000e+00   3.300000e+01   0.000000e+00
  1.000000e+00   3.400000e+01   0.000000e+00
  1.000000e+00   3.500000e+01   0.000000e+00
  1.000000e+00   3.600000e+01   0.000000e+00
  1.000000e+00   3.700000e+01   0.000000e+00
  1.000000e+00   3.800000e+01   0.000000e+00
  1.000000e+00   3.900000e+01   0.000000e+00
  1.000000e+00   4.000000e+01   0.000000e+00
  1.000000e+00   4.100000e+01   0.000000e+00
  1.000000e+00   4.200000e+01   0.000000e+00
  1.000000e+00   4.300000e+01   0.000000e+00
  1.000000e+00   4.400000e+01   0.000000e+00
  1.000000e+00   4.500000e+01   0.000000e+00
  1.000000e+00   4.600000e+01   0.000000e+00
  1.000000e+00   4.700000e+01   0.000000e+00
  1.000000e+00   4.800000e+01   0.000000e+00
  1.000000e+00   4.900000e+01   0.000000e+00
  1.000000e+00   5.000000e+01   0.000000e+00
  1.000000e+00   5.100000e+01   0.000000e+00
  1.000000e+00   5.200000e+01   0.000000e+00
  1.000000e+00   5.300000e+01   0.000000e+00
  1.000000e+00   5.400000e+01   0.000000e+00
  1.000000e+00   5.500000e+01   0.000000e+00
  1.000000e+00   5.600000e+01   0.000000e+00
  1.000000e+00   5.700000e+01   0.000000e+00
  1.000000e+00   5.800000e+01   0.000000e+00
  1.000000e+00   5.900000e+01   0.000000e+00
  1.000000e+00   6.000000e+01   0.000000e+00
  1.000000e+00   6.100000e+01   0.000000e+00
  1.000000e+00   6.200000e+01   0.000000e+00
  1.000000e+00   6.300000e+01   0.000000e+00
  2.000000e+00   0.000000e+00   0.000000e+00
  2.000000e+00   1.000000e+00   0.000000e+00
  2.000000e+00   2.000000e+00   0.000000e+00
  2.000000e+00   3.000000e+00   0.000000e+00
  2.000000e+00   4.000000e+00   0.000000e+00
  2.000000e+00   5.000000e+00   0.000000e+00
  2.000000e+00   6.000000e+00   0.000000e+00
  2.000000e+00   7.000000e+00   0.000000e+00
  2.000000e+00   8.000000e+00   0.000000e+00
  2.000000e+00   9.000000e+00   0.000000e+00
  2.000000e+00   1.000000e+01   0.000000e+00
  2.000000e+00   1.100000e+01   0.000000e+00
  2.000000e+00   1.200000e+01   0.000000e+00
  2.000000e+00   1.300000e+01   0.000000e+00
  2.000000e+00   1.400000e+01   0.000000e+00
  2.000000e+00   1.500000e+01   0.000000e+00
  2.000000e+00   1.600000e+01   0.000000e+00
  2.000000e+00   1.700000e+01   0.000000e+00
  2.000000e+00   1.800000e+01   0.000000e+00
  2.000000e+00   1.900000e+01   0.000000e+00
  2.000000e+00   2.000000e+01   0.000000e+00
  2.000000e+00   2.100000e+01   0.000000e+00
  2.000000e+00   2.200000e+01   0.000000e+00
  2.000000e+00   2.300000e+01   0.000000e+00
  2.000000e+00   2.400000e+01   0.000000e+00
  2.000000e+00   2.500000e+01   0.000000e+00
  2.000000e+00   2.600000e+01   0.000000e+00
  2.000000e+00   2.700000e+01   0.000000e+00
  2.000000e+00   2.800000e+01   0.000000e+00
  2.000000e+00   2.900000e+01   0.000000e+00
  2.000000e+00   3.000000e+01   0.000000e+00
  2.000000e+00   3.100000e+01   0.000000e+00
  2.000000e+00   3.200000e+01   0.000000e+00
  2.000000e+00   3.300000e+01   0.000000e+00
  2.000000e+00   3.400000e+01   0.000000e+00
  2.000000e+00   3.500000e+01   0.000000e+00
  2.000000e+00   3.600000e+01   0.000000e+00
  2.000000e+00   3.700000e+01   0.000000e+00
  2.000000e+00   3.800000e+01   0.000000e+00
  2.000000e+00   3.900000e+01   0.000000e+00
  2.000000e+00   4.000000e+01   0.000000e+00
  2.000000e+00   4.100000e+01   0.000000e+00
  2.000000e+00   4.200000e+01   0.000000e+00
  2.000000e+00   4.300000e+01   0.000000e+00
  2.000000e+00   4.400000e+01   0.000000e+00
  2.000000e+00   4.500000e+01   0.000000e+00
  2.000000e+00   4.600000e+01   0.000000e+00
  2.000000e+00   4.700000e+01   0.000000e+00
  2.000000e+00   4.800000e+01   0.000000e+00
  2.000000e+00   4.900000e+01   0.000000e+00
  2.000000e+00   5.000000e+01   0.000000e+00
  2.000000e+00   5.100000e+01   0.000000e+00
  2.000000e+00   5.200000e+01   0.000000e+00
  2.000000e+00   5.300000e+01   0.000000e+00
  2.000000e+00   5.400000e+01   0.000000e+00
  2.000000e+00   5.500000e+01   0.000000e+00
  2.000000e+00   5.600000e+01   0.000000e+00
  2.000000e+00   5.700000e+01   0.000000e+00
  2.000000e+00   5.800000e+01   0.000000e+00
  2.000000e+00   5.900000e+01   0.000000e+00
  2.000000e+00   6.000000e+01   0.000000e+00
  2.000000e+00   6.100000e+01   0.000000e+00
  2.000000e+00   6.200000e+01   0.000000e+00
  2.000000e+00   6.300000e+01   0.000000e+00
  3.000000e+00   0.000000e+00   0.000000e+00
  3.000000e+00   1.000000e+00   0.000000e+00
  3.000000e+00   2.000000e+00   0.000000e+00
  3.000000e+00   3.000000e+00   0.000000e+00
  3.000000e+00   4.000000e+00   0.000000e+00
  3.000000e+00   5.000000e+00   0.000000e+00
  3.000000e+00   6.000000e+00   0.000000e+00
  3.000000e+00   7.000000e+00   0.000000e+00
  3.000000e+00   8.000000e+00   0.000000e+00
  3.000000e+00   9.000000e+00   0.000000e+00
  3.000000e+00   1.000000e+01   0.000000e+00
  3.000000e+00   1.100000e+01   0.000000e+00
  3.000000e+00   1.200000e+01   0.000000e+00
  3.000000e+00   1.300000e+01   0.000000e+00
  3.000000e+00   1.400000e+01   0.000000e+00
  3.000000e+00   1.500000e+01   0.000000e+00
  3.000000e+00   1.600000e+01   0.000000e+00
  3.000000e+00   1.700000e+01   0.000000e+00
  3.000000e+00   1.800000e+01   0.000000e+00
  3.000000e+00   1.900000e+01   0.000000e+00
  3.000000e+00   2.000000e+01   0.000000e+00
  3.000000e+00   2.100000e+01   0.000000e+00
  3.000000e+00   2.200000e+01   0.000000e+00
  3.000000e+00   2.300000e+01   0.000000e+00
  3.000000e+00   2.400000e+01   0.000000e+00
  3.000000e+00   2.500000e+01   0.000000e+00
  3.000000e+00   2.600000e+01   0.000000e+00
[...]
POINT_DATA  4096
SCALARS CON float 1
LOOKUP_TABLE default
  6.644350e-01
  8.888696e-01
  9.624148e-01
  9.777602e-01
  9.733152e-01
  9.594700e-01
  9.291328e-01
  8.448827e-01
  6.143020e-01
  2.335047e-01
  7.440633e-02
  3.441077e-02
  2.478128e-02
  2.301386e-02
  2.559327e-02
  3.434865e-02
  5.010098e-02
  6.326297e-02
  6.375300e-02
  5.228646e-02
  4.064771e-02
  3.548419e-02
  3.339763e-02
  3.187922e-02
  3.280323e-02
  4.892256e-02
  1.231326e-01
  3.501116e-01
  7.022118e-01
  8.863080e-01
  9.367154e-01
  9.280670e-01
  8.895966e-01
  8.354152e-01
  7.711590e-01
  6.640606e-01
  4.746890e-01
  2.769218e-01
  1.428658e-01
  6.970116e-02
  3.868596e-02
  2.940701e-02
  3.378419e-02
  6.146655e-02
  1.428672e-01
  2.520996e-01
  3.050600e-01
  2.619976e-01
  1.528869e-01
  7.393131e-02
  5.205497e-02
  7.608502e-02
  2.266674e-01
  6.783061e-01
  9.028581e-01
  9.448896e-01
  8.864624e-01
  6.417949e-01
  2.156848e-01
  6.291311e-02
  3.246569e-02
  3.827768e-02
  8.993340e-02
  2.893230e-01
  8.864614e-01
  9.631888e-01
  9.689636e-01
  9.405553e-01
  8.812298e-01
  7.963920e-01
  6.697008e-01
  4.520019e-01
  2.287431e-01
  9.154865e-02
  4.331604e-02
  2.999262e-02
  2.622431e-02
  2.509331e-02
  2.539298e-02
  2.762248e-02
  3.262214e-02
  4.020389e-02
  4.916930e-02
  5.771323e-02
  6.557843e-02
  7.208397e-02
  7.374558e-02
  6.676189e-02
  5.225325e-02
  4.177838e-02
  5.508157e-02
  1.286614e-01
  3.429724e-01
  6.826946e-01
  8.774891e-01
  9.463996e-01
  9.640297e-01
  9.627507e-01
  9.519423e-01
  9.253033e-01
  8.622181e-01
  7.244807e-01
  4.533161e-01
  1.973665e-01
  7.528867e-02
  4.216545e-02
  5.499140e-02
  1.469625e-01
  4.533571e-01
  7.438125e-01
  8.203874e-01
  7.384365e-01
  4.318527e-01
  1.410271e-01
  6.504974e-02
  9.120105e-02
  3.020189e-01
  8.128279e-01
  9.687646e-01
  9.934218e-01
  9.672921e-01
  8.262036e-01
  3.726652e-01
  9.890589e-02
  4.452183e-02
  6.423219e-02
  1.949699e-01
  6.121261e-01
  9.495021e-01
  9.643497e-01
  9.106169e-01
  7.694123e-01
  5.318446e-01
  3.116521e-01
  1.952211e-01
  1.238385e-01
  7.881543e-02
  5.959345e-02
  5.688867e-02
  5.869890e-02
  6.015097e-02
  6.076339e-02
  6.187972e-02
  6.639397e-02
  7.966686e-02
  1.089136e-01
  1.547953e-01
  2.043644e-01
  2.475918e-01
  2.777867e-01
  2.818043e-01
  2.425816e-01
  1.586651e-01
  7.670969e-02
  4.585339e-02
  5.364010e-02
  1.173306e-01
  3.028208e-01
  6.286862e-01
  8.500432e-01
  9.427795e-01
  9.756949e-01
  9.856322e-01
  9.848333e-01
  9.725549e-01
  9.342614e-01
  8.196682e-01
  5.343045e-01
  1.978173e-01
  7.730555e-02
  8.656486e-02
  2.597272e-01
  7.430703e-01
  9.418850e-01
  9.774478e-01
  9.296629e-01
  6.900471e-01
  2.162055e-01
  7.709449e-02
  9.523099e-02
  3.245168e-01
  8.413271e-01
  9.782787e-01
  9.994502e-01
  9.854811e-01
  8.990514e-01
  5.456946e-01
  1.436844e-01
  5.819326e-02
  9.030782e-02
  2.909973e-01
  7.812202e-01
  8.983369e-01
  8.633798e-01
  6.784449e-01
  3.551647e-01
  1.563180e-01
  7.900784e-02
  6.009457e-02
  7.117046e-02
  1.063309e-01
  1.601007e-01
  2.073039e-01
  2.364460e-01
  2.507021e-01
  2.569731e-01
  2.634845e-01
  2.826078e-01
  3.360553e-01
  4.500905e-01
  6.046917e-01
  7.222805e-01
  7.872687e-01
  8.184904e-01
  8.185364e-01
  7.524805e-01
  5.234698e-01
  1.972158e-01
  6.984589e-02
  3.907745e-02
  4.493766e-02
  9.431857e-02
  2.392130e-01
  5.305760e-01
  7.986240e-01
  9.274736e-01
  9.758014e-01
  9.922504e-01
  9.960301e-01
  9.890945e-01
  9.540143e-01
  8.169855e-01
  4.274818e-01
  1.407282e-01
  1.133927e-01
  3.118027e-01
  8.135360e-01
  9.742399e-01
  9.976818e-01
  9.524023e-01
  7.256339e-01
  2.247462e-01
  7.414753e-02
  8.637494e-02
  3.024416e-01
  8.294751e-01
  9.729983e-01
  9.964599e-01
  9.882419e-01
  9.288021e-01
  6.637884e-01
  1.801645e-01
  6.557790e-02
  9.366688e-02
  2.867236e-01
  7.452391e-01
  5.981106e-01
  4.913188e-01
  2.603427e-01
  1.069868e-01
  4.820796e-02
  4.129653e-02
  8.126757e-02
  1.946946e-01
  3.826405e-01
  6.010086e-01
  7.303136e-01
  7.814936e-01
  7.982204e-01
  8.023209e-01
  8.039449e-01
  8.107596e-01
  8.303846e-01
  8.660821e-01
  9.079243e-01
  9.398925e-01
  9.599907e-01
  9.720776e-01
  9.748664e-01
  9.491546e-01
  8.093968e-01
  3.684108e-01
  1.092180e-01
  4.270312e-02
  2.795081e-02
  3.328906e-02
  6.817044e-02
  1.734483e-01
  4.161399e-01
  7.354601e-01
  9.073155e-01
  9.721152e-01
  9.944462e-01
  9.999000e-01
  9.891936e-01
  9.181287e-01
  6.236028e-01
  1.999473e-01
  1.165795e-01
  2.605538e-01
  7.137025e-01
  9.169414e-01
  9.471658e-01
  8.652642e-01
  5.550500e-01
  1.613703e-01
  5.684002e-02
  7.047056e-02
  2.588277e-01
  7.958228e-01
  9.619298e-01
  9.915230e-01
  9.868210e-01
  9.390058e-01
  7.152109e-01
  1.969747e-01
  6.266261e-02
  7.005688e-02
  1.737727e-01
  4.445259e-01
  1.837461e-01
  1.445125e-01
  8.017712e-02
  4.236053e-02
  3.612672e-02
  7.496399e-02
  2.418169e-01
  5.875274e-01
  8.181574e-01
  9.129478e-01
  9.484770e-01
  9.595643e-01
  9.610596e-01
  9.586754e-01
  9.551006e-01
  9.528270e-01
  9.541736e-01
  9.602411e-01
  9.695128e-01
  9.790973e-01
  9.878098e-01
  9.951788e-01
  9.983088e-01
  9.818832e-01
  8.720692e-01
  4.401946e-01
  1.268429e-01
  4.544084e-02
  2.459576e-02
  1.879054e-02
  2.282824e-02
  4.713018e-02
  1.255014e-01
  3.313774e-01
  6.708431e-01
  8.775483e-01
  9.582942e-01
  9.843418e-01
  9.802176e-01
  9.114427e-01
  6.208349e-01
  1.958048e-01
  9.228461e-02
  1.447463e-01
  3.853673e-01
  6.504566e-01
  7.047511e-01
  5.457332e-01
  2.478822e-01
  8.096465e-02
  3.770111e-02
  5.453476e-02
  2.103706e-01
  7.370677e-01
  9.451909e-01
  9.860888e-01
  9.845214e-01
  9.409502e-01
  7.304187e-01
  1.983629e-01
  5.436946e-02
  4.443801e-02
  7.786760e-02
  1.465551e-01
  6.305797e-02
  5.350354e-02
  3.918480e-02
  3.354440e-02
  5.083243e-02
  1.529349e-01
  5.326941e-01
  8.636476e-01
  9.640816e-01
  9.889228e-01
  9.935044e-01
  9.909557e-01
  9.842398e-01
  9.734870e-01
  9.597324e-01
  9.475503e-01
  9.404130e-01
  9.395900e-01
  9.444366e-01
  9.528211e-01
  9.622285e-01
  9.698136e-01
  9.692583e-01
  9.368821e-01
  7.815025e-01
  3.404458e-01
  1.023244e-01
  4.038335e-02
  2.275971e-02
  1.547373e-02
  1.262544e-02
  1.595209e-02
  3.464890e-02
  9.639257e-02
  2.628911e-01
  5.643025e-01
  7.877942e-01
  8.741639e-01
  8.738986e-01
  7.543112e-01
  4.041690e-01
  1.314936e-01
  6.324422e-02
  6.849968e-02
  1.237147e-01
  1.967999e-01
  2.148910e-01
  1.609807e-01
  8.363619e-02
  4.066646e-02
  2.735013e-02
  4.245863e-02
  1.623198e-01
  6.354239e-01
  9.190023e-01
  9.801808e-01
  9.826863e-01
  9.407927e-01
  7.339190e-01
  1.951122e-01
  4.629128e-02
  2.848502e-02
  3.892736e-02
  5.586020e-02
  3.537361e-02
  3.424205e-02
  3.210013e-02
  3.589664e-02
  6.616032e-02
  2.165290e-01
  7.052085e-01
  9.429511e-01
  9.943580e-01
  9.999000e-01
  9.938514e-01
  9.791192e-01
  9.519804e-01
  9.056447e-01
  8.424287e-01
  7.887446e-01
  7.577228e-01
  7.496068e-01
  7.596849e-01
  7.800183e-01
  8.014603e-01
  8.142671e-01
  8.011474e-01
  7.138712e-01
  4.607492e-01
  1.716454e-01
  6.327027e-02
  3.243838e-02
  2.138645e-02
  1.549871e-02
  1.216157e-02
  1.168320e-02
  1.616017e-02
  3.224078e-02
  7.678671e-02
  1.742584e-01
  3.127890e-01
  4.344515e-01
  4.446665e-01
  3.203018e-01
  1.573301e-01
  6.974381e-02
  4.403495e-02
  4.165053e-02
  5.123381e-02
  6.514574e-02
  7.023374e-02
  6.137328e-02
  4.599664e-02
  3.392941e-02
  2.741257e-02
  3.633005e-02
  1.189845e-01
  4.878795e-01
  8.798152e-01
  9.731967e-01
  9.817565e-01
  9.420811e-01
  7.421367e-01
  2.007406e-01
  4.259635e-02
  1.984112e-02
  2.404618e-02
  3.158157e-02
  3.285043e-02
  3.307529e-02
  3.271298e-02
  3.774568e-02
  6.705675e-02
  2.063759e-01
  6.631873e-01
  9.154671e-01
  9.723942e-01
  9.732248e-01
  9.491148e-01
  8.907036e-01
  7.803009e-01
  5.988239e-01
  3.836059e-01
  2.599351e-01
  2.143813e-01
  2.066649e-01
  2.184793e-01
  2.408550e-01
  2.649185e-01
  2.794320e-01
  2.702687e-01
  2.231930e-01
  1.406201e-01
  7.005390e-02
  4.069408e-02
  3.046637e-02
  2.598647e-02
  2.378935e-02
  2.433814e-02
  2.822577e-02
  3.470759e-02
  4.362003e-02
  5.729523e-02
  7.937451e-02
  1.078304e-01
  1.315923e-01
  1.300110e-01
  9.925058e-02
  6.312650e-02
  4.248847e-02
  3.489608e-02
  3.362367e-02
  3.701762e-02
  4.625613e-02
  6.093374e-02
  7.325139e-02
  7.501297e-02
  6.497652e-02
  4.855068e-02
  4.218778e-02
  9.078124e-02
  3.488557e-01
  8.242913e-01
  9.614883e-01
  9.802068e-01
  9.463022e-01
  7.684801e-01
  2.425409e-01
  5.442349e-02
  2.170618e-02
  2.294769e-02
  2.913253e-02
  6.175757e-02
  5.177706e-02
  4.099816e-02
  3.893795e-02
  5.460977e-02
  1.301892e-01
  3.948773e-01
  7.092011e-01
  8.168546e-01
  8.131950e-01
  7.314501e-01
  5.404096e-01
  3.061691e-01
  1.627452e-01
  8.695249e-02
  5.471050e-02
  4.633676e-02
  5.075498e-02
  6.275273e-02
  7.645200e-02
  8.482570e-02
  8.524216e-02
  7.978736e-02
  6.902417e-02
  5.404862e-02
  4.300528e-02
  4.251844e-02
  5.105035e-02
  6.234670e-02
  7.600429e-02
  9.819223e-02
  1.308847e-01
  1.645076e-01
  1.888421e-01
  1.977431e-01
  1.843346e-01
  1.454926e-01
  9.986031e-02
  6.723302e-02
  4.850214e-02
  3.806263e-02
  3.293602e-02
  3.120932e-02
  3.304703e-02
  4.431727e-02
  8.207153e-02
  1.595569e-01
  2.361319e-01
  2.645854e-01
  2.321658e-01
  1.536278e-01
  8.240861e-02
  8.342282e-02
  2.455778e-01
  7.134886e-01
  9.238602e-01
  9.680637e-01
  9.488463e-01
  8.196107e-01
  3.860478e-01
  1.259389e-01
  6.352244e-02
  5.828812e-02
  6.295188e-02
  2.210247e-01
  1.502560e-01
  7.877867e-02
  4.712073e-02
  4.390251e-02
  6.576996e-02
  1.355728e-01
  2.389613e-01
  2.957823e-01
  2.825647e-01
  2.201680e-01
  1.395846e-01
  7.331282e-02
  3.760653e-02
  2.153628e-02
  1.786666e-02
  2.496429e-02
  4.614661e-02
  7.965553e-02
  1.072285e-01
  1.062261e-01
  8.011979e-02
  5.584445e-02
  4.478404e-02
  4.229787e-02
  5.157881e-02
  8.913397e-02
  1.654283e-01
  2.460619e-01
  3.254378e-01
  4.317717e-01
  5.639129e-01
  6.688645e-01
  7.217007e-01
  7.247884e-01
  6.603800e-01
  4.892524e-01
  2.681778e-01
  1.148222e-01
  5.205209e-02
  3.433368e-02
  3.020528e-02
  3.081683e-02
  3.959724e-02
  8.160229e-02
  2.376413e-01
  5.364873e-01
  7.421471e-01
  7.956525e-01
  7.404241e-01
  5.258580e-01
  2.245933e-01
  1.028353e-01
  1.561802e-01
  4.585403e-01
  7.801101e-01
  8.996881e-01
  9.198830e-01
  8.672174e-01
  6.634452e-01
  3.937347e-01
  2.765734e-01
  2.555089e-01
  2.519547e-01
  7.260354e-01
  5.090626e-01
  2.141855e-01
  7.731674e-02
  4.344579e-02
  4.217665e-02
  5.565815e-02
  7.506523e-02
  8.435208e-02
  7.724881e-02
  5.926259e-02
  3.910281e-02
  2.356760e-02
  1.523145e-02
  1.335193e-02
  2.075254e-02
  5.149790e-02
  1.375480e-01
  2.711776e-01
  3.646792e-01
  3.351034e-01
  2.019043e-01
  9.017344e-02
  5.340914e-02
  5.328365e-02
  9.698781e-02
  2.643274e-01
  5.668797e-01
  7.573035e-01
  8.312317e-01
  8.714419e-01
  9.056000e-01
  9.309499e-01
  9.445974e-01
  9.462104e-01
  9.280755e-01
  8.614893e-01
  6.713402e-01
  3.062584e-01
  9.574618e-02
  4.159530e-02
  3.113879e-02
  3.320289e-02
  5.495492e-02
  1.631205e-01
  5.451209e-01
  8.537398e-01
  9.504567e-01
  9.691659e-01
  9.484332e-01
  8.345260e-01
  4.725470e-01
  1.497844e-01
  9.422069e-02
  1.816894e-01
  3.907307e-01
  6.183882e-01
  7.409034e-01
  8.003841e-01
  8.200453e-01
  8.010833e-01
  7.925047e-01
  7.992635e-01
  7.937942e-01
  9.432902e-01
  8.282288e-01
  4.687135e-01
  1.374096e-01
  5.248520e-02
  3.902953e-02
  4.193425e-02
  4.657826e-02
  4.633085e-02
  4.000188e-02
  3.101205e-02
  2.280355e-02
  1.683701e-02
  1.408796e-02
  1.756167e-02
  4.186226e-02
  1.451715e-01
  4.445884e-01
  7.484327e-01
  8.470945e-01
  7.979315e-01
  5.283074e-01
  1.760014e-01
  7.408737e-02
  7.356506e-02
  1.776088e-01
  5.574610e-01
  8.620191e-01
  9.514310e-01
  9.719551e-01
  9.775877e-01
  9.817612e-01
  9.860279e-01
  9.897472e-01
  9.918889e-01
  9.893898e-01
  9.713420e-01
  8.908133e-01
  6.007067e-01
  1.776709e-01
  5.732019e-02
  3.457039e-02
  3.705472e-02
  7.256146e-02
  2.480413e-01
  7.538072e-01
  9.529676e-01
  9.955560e-01
  9.999000e-01
  9.910865e-01
  9.231161e-01
  6.268141e-01
  1.833512e-01
  6.872214e-02
  6.716386e-02
  1.103061e-01
  1.775640e-01
  2.690468e-01
  4.542349e-01
  7.269883e-01
  8.889979e-01
  9.435414e-01
  9.627958e-01
  9.667329e-01
  9.906035e-01
  9.272556e-01
  6.557597e-01
  1.955952e-01
  7.015891e-02
  5.795567e-02
  7.040857e-02
  7.946451e-02
  7.351355e-02
  5.436370e-02
  3.550668e-02
  2.443065e-02
  1.843225e-02
  1.680355e-02
  2.653345e-02
  8.519756e-02
  3.338859e-01
  7.682218e-01
  9.405126e-01
  9.765514e-01
  9.364015e-01
  7.119660e-01
  2.341887e-01
  8.596273e-02
  8.403023e-02
  2.206095e-01
  6.806150e-01
  9.292100e-01
  9.849624e-01
  9.923605e-01
  9.907824e-01
  9.895780e-01
  9.907579e-01
  9.940240e-01
  9.978814e-01
  9.999000e-01
  9.961355e-01
  9.566755e-01
  7.611978e-01
  2.473729e-01
  7.246420e-02
  3.852570e-02
  4.028760e-02
  8.195632e-02
  2.846283e-01
  8.061619e-01
  9.706224e-01
  9.999000e-01
  9.999000e-01
  9.876596e-01
  9.093370e-01
  5.857031e-01
  1.648295e-01
  5.460238e-02
  3.571709e-02
  3.800061e-02
  4.791282e-02
  7.286423e-02
  1.641195e-01
  4.531694e-01
  8.261910e-01
  9.567943e-01
  9.913306e-01
  9.996707e-01
  9.881060e-01
  9.247092e-01
  6.646939e-01
  2.194789e-01
  1.179217e-01
  1.608170e-01
  2.346178e-01
  2.720094e-01
  2.398082e-01
  1.478175e-01
  6.657014e-02
  3.366542e-02
  2.195601e-02
  2.023691e-02
  3.951716e-02
  1.527305e-01
  5.798891e-01
  9.015060e-01
  9.828264e-01
  9.876928e-01
  9.261380e-01
  6.612054e-01
  2.050932e-01
  7.523609e-02
  7.247307e-02
  1.784022e-01
  5.593874e-01
  8.582091e-01
  9.437416e-01
  9.594882e-01
  9.591966e-01
  9.591947e-01
  9.647334e-01
  9.756425e-01
  9.876065e-01
  9.957424e-01
  9.951893e-01
  9.603806e-01
  7.771953e-01
  2.608419e-01
  7.743440e-02
  4.140828e-02
  4.217990e-02
  7.821428e-02
  2.513827e-01
  7.383623e-01
  9.362768e-01
  9.776109e-01
  9.753605e-01
  9.385729e-01
  7.891807e-01
  3.806654e-01
  1.094836e-01
  4.211346e-02
  2.758982e-02
  2.371259e-02
  2.265756e-02
  2.809729e-02
  6.418671e-02
  2.230806e-01
  6.484588e-01
  9.069693e-01
  9.804803e-01
  9.969558e-01
  9.281981e-01
  8.139385e-01
  4.990978e-01
  2.232114e-01
  2.804835e-01
  5.340594e-01
  7.360024e-01
  7.959349e-01
  7.302608e-01
  4.656078e-01
  1.564530e-01
  5.339196e-02
  2.672719e-02
  2.395074e-02
  5.568622e-02
  2.302885e-01
  7.401105e-01
  9.449123e-01
  9.804749e-01
  9.501011e-01
  8.042974e-01
  4.140037e-01
  1.225658e-01
  5.235926e-02
  5.057095e-02
  9.644608e-02
  2.617249e-01
  5.462019e-01
  7.206050e-01
  7.730840e-01
  7.833617e-01
  7.939566e-01
  8.238709e-01
  8.743259e-01
  9.250195e-01
  9.538738e-01
  9.543915e-01
  8.938384e-01
  6.457768e-01
  2.060627e-01
  7.057422e-02
  4.592259e-02
  4.805949e-02
  7.023939e-02
  1.672433e-01
  4.841668e-01
  7.574211e-01
  8.396494e-01
  8.298089e-01
  7.314606e-01
  4.676095e-01
  1.790199e-01
  6.732142e-02
  3.816231e-02
  2.900638e-02
  2.383046e-02
  2.043612e-02
  2.052335e-02
  3.385955e-02
  1.013990e-01
  3.471709e-01
  7.316799e-01
  9.036576e-01
  9.478668e-01
  6.665366e-01
  4.621370e-01
  2.460358e-01
  2.370896e-01
  5.663094e-01
  8.474300e-01
  9.460487e-01
  9.683534e-01
  9.379137e-01
  7.607868e-01
  2.796383e-01
  7.850702e-02
  3.155067e-02
  2.860647e-02
  7.964208e-02
  3.319551e-01
  8.180258e-01
  9.525399e-01
  9.476766e-01
  8.299947e-01
  5.063909e-01
  1.758451e-01
  5.923526e-02
  3.542185e-02
  3.632134e-02
  4.989493e-02
  8.802592e-02
  1.546300e-01
  2.072857e-01
  2.271278e-01
  2.326218e-01
  2.511388e-01
  3.160403e-01
  4.623884e-01
  6.431224e-01
  7.454971e-01
  7.510945e-01
  6.236622e-01
  3.284286e-01
  1.185890e-01
  6.672792e-02
  7.140217e-02
  8.635230e-02
  9.657593e-02
  1.159257e-01
  1.877193e-01
  2.863173e-01
  3.387948e-01
  3.232874e-01
  2.543758e-01
  1.628988e-01
  9.897101e-02
  7.636527e-02
  6.492575e-02
  5.000408e-02
  3.458105e-02
  2.521213e-02
  2.178609e-02
  2.526532e-02
  4.773914e-02
  1.313134e-01
  3.417142e-01
  6.045541e-01
  7.152882e-01
  1.911187e-01
  1.361248e-01
  1.156040e-01
  2.596349e-01
  7.440415e-01
  9.451716e-01
  9.926014e-01
  9.999000e-01
  9.816487e-01
  8.507331e-01
  3.498177e-01
  9.215924e-02
  3.393193e-02
  3.598434e-02
  1.221317e-01
  4.888985e-01
  8.679627e-01
  9.394276e-01
  8.584307e-01
  5.540333e-01
  2.017433e-01
  6.528110e-02
  3.331233e-02
  3.134617e-02
  3.485493e-02
  3.807440e-02
  4.279303e-02
  5.051984e-02
  5.558670e-02
  5.534901e-02
  5.372476e-02
  5.699930e-02
  7.329621e-02
  1.124419e-01
  1.709066e-01
  2.196191e-01
  2.298564e-01
  1.861670e-01
  1.122454e-01
  7.718773e-02
  1.095852e-01
  2.010808e-01
  2.755331e-01
  2.782966e-01
  2.091532e-01
  1.295565e-01
  1.031481e-01
  9.942329e-02
  9.540911e-02
  9.525386e-02
  1.222329e-01
  1.841061e-01
  2.295419e-01
  2.198240e-01
  1.556530e-01
  8.016996e-02
  4.010077e-02
  2.689377e-02
  2.470727e-02
  3.039119e-02
  5.132958e-02
  1.014114e-01
  1.717753e-01
  2.099103e-01
  5.675827e-02
  5.150024e-02
  8.030645e-02
  2.681192e-01
  7.948857e-01
  9.674158e-01
  9.999000e-01
  9.999000e-01
  9.794531e-01
  8.398480e-01
  3.291419e-01
  8.480820e-02
  3.327228e-02
  4.961452e-02
  1.930172e-01
  6.599457e-01
  9.017677e-01
  9.010698e-01
  6.768042e-01
  2.542285e-01
  7.429189e-02
  3.408631e-02
  3.735413e-02
  5.234141e-02
  6.121247e-02
  5.658841e-02
  4.434596e-02
  3.515040e-02
  3.008675e-02
  2.682935e-02
  2.510151e-02
  2.573466e-02
  2.965613e-02
  3.785209e-02
  4.964712e-02
  6.036808e-02
  6.442895e-02
  5.997631e-02
  5.834334e-02
  1.004674e-01
  2.893817e-01
  6.211657e-01
  7.808894e-01
  7.725464e-01
  5.840419e-01
  2.440451e-01
  8.905635e-02
  5.270462e-02
  5.542458e-02
  1.052496e-01
  2.899784e-01
  5.831929e-01
  7.348724e-01
  7.233539e-01
  5.415474e-01
  2.464887e-01
  8.276176e-02
  3.740789e-02
  2.764210e-02
  2.759563e-02
  3.249050e-02
  4.255954e-02
  5.504819e-02
  6.098283e-02
  3.292049e-02
  3.485484e-02
  6.739664e-02
  2.403497e-01
  7.561682e-01
  9.549475e-01
  9.950986e-01
  9.916349e-01
  9.444828e-01
  7.356831e-01
  2.408622e-01
  6.344881e-02
  3.392870e-02
  8.113391e-02
  3.203948e-01
  7.828290e-01
  9.161463e-01
  8.329015e-01
  4.265043e-01
  1.155919e-01
  4.049587e-02
  4.684620e-02
  9.847331e-02
  1.717488e-01
  2.045326e-01
  1.686542e-01
  9.627751e-02
  4.958229e-02
  3.270848e-02
  2.805705e-02
  2.873356e-02
  3.318402e-02
  3.850540e-02
  4.060709e-02
  3.873312e-02
  3.562858e-02
  3.388262e-02
  3.595549e-02
  5.604381e-02
  1.655188e-01
  5.715119e-01
  8.806746e-01
  9.624455e-01
  9.560267e-01
  8.429905e-01
  4.545755e-01
  1.294600e-01
  5.408231e-02
  6.530730e-02
  1.907178e-01
  6.102489e-01
  8.782226e-01
  9.513938e-01
  9.479993e-01
  8.601420e-01
  5.595876e-01
  1.661392e-01
  5.475902e-02
  3.299402e-02
  3.138944e-02
  3.468976e-02
  3.805197e-02
  3.899358e-02
  3.659697e-02
  3.927550e-02
  3.357252e-02
  5.358151e-02
  1.685418e-01
  5.727778e-01
  8.641061e-01
  9.418879e-01
  9.264517e-01
  8.045307e-01
  4.626184e-01
  1.325176e-01
  4.306276e-02
  4.757704e-02
  1.622291e-01
  5.486502e-01
  8.708030e-01
  9.171998e-01
  7.494664e-01
  2.591829e-01
  6.823767e-02
  4.938969e-02
  1.262411e-01
  3.472094e-01
  6.110731e-01
  6.962541e-01
  5.795597e-01
  2.959720e-01
  1.025132e-01
  4.677427e-02
  3.713597e-02
  4.534627e-02
  6.969422e-02
  9.631658e-02
  1.010975e-01
  7.997700e-02
  5.208627e-02
  3.514828e-02
  3.343854e-02
  6.093761e-02
  2.114561e-01
  7.172078e-01
  9.506626e-01
  9.999000e-01
  9.956690e-01
  9.236751e-01
  6.107319e-01
  1.701768e-01
  6.314422e-02
  8.264667e-02