# vtk DataFile Version 2.0
time_10.vtk
ASCII
DATASET STRUCTURED_GRID
DIMENSIONS    64    64     1
POINTS    4096 float
  0.000000e+00   0.000000e+00   0.000000e+00
  0.000000e+00   1.000000e+00   0.000000e+00
  0.000000e+00   2.000000e+00   0.000000e+00
  0.000000e+00   3.000000e+00   0.000000e+00
  0.000000e+00   4.000000e+00   0.000000e+00
  0.000000e+00   5.000000e+00   0.000000e+00
  0.000000e+00   6.000000e+00   0.000000e+00
  0.000000e+00   7.000000e+00   0.000000e+00
  0.000000e+00   8.000000e+00   0.000000e+00
  0.000000e+00   9.000000e+00   0.000000e+00
  0.000000e+00   1.000000e+01   0.000000e+00
  0.000000e+00   1.100000e+01   0.000000e+00
  0.000000e+00   1.200000e+01   0.000000e+00
  0.000000e+00   1.300000e+01   0.000000e+00
  0.000000e+00   1.400000e+01   0.000000e+00
  0.000000e+00   1.500000e+01   0.000000e+00
  0.000000e+00   1.600000e+01   0.000000e+00
  0.000000e+00   1.700000e+01   0.000000e+00
  0.000000e+00   1.800000e+01   0.000000e+00
  0.000000e+00   1.900000e+01   0.000000e+00
  0.000000e+00   2.000000e+01   0.000000e+00
  0.000000e+00   2.100000e+01   0.000000e+00
  0.000000e+00   2.200000e+01   0.000000e+00
  0.000000e+00   2.300000e+01   0.000000e+00
  0.000000e+00   2.400000e+01   0.000000e+00
  0.000000e+00   2.500000e+01   0.000000e+00
  0.000000e+00   2.600000e+01   0.000000e+00
  0.000000e+00   2.700000e+01   0.000000e+00
  0.000000e+00   2.800000e+01   0.000000e+00
  0.000000e+00   2.900000e+01   0.000000e+00
  0.000000e+00   3.000000e+01   0.000000e+00
  0.000000e+00   3.100000e+01   0.000000e+00
  0.000000e+00   3.200000e+01   0.000000e+00
  0.000000e+00   3.300000e+01   0.000000e+00
  0.000000e+00   3.400000e+01   0.000000e+00
  0.000000e+00   3.500000e+01   0.000000e+00
  0.000000e+00   3.600000e+01   0.000000e+00
  0.000000e+00   3.700000e+01   0.000000e+00
  0.000000e+00   3.800000e+01   0.000000e+00
  0.000000e+00   3.900000e+01   0.000000e+00
  0.000000e+00   4.000000e+01   0.000000e+00
  0.000000e+00   4.100000e+01   0.000000e+00
  0.000000e+00   4.200000e+01   0.000000e+00
  0.000000e+00   4.300000e+01   0.000000e+00
  0.000000e+00   4.400000e+01   0.000000e+00
  0.000000e+00   4.500000e+01   0.000000e+00
  0.000000e+00   4.600000e+01   0.000000e+00
  0.000000e+00   4.700000e+01   0.000000e+00
  0.000000e+00   4.800000e+01   0.000000e+00
  0.000000e+00   4.900000e+01   0.000000e+00
  0.000000e+00   5.000000e+01   0.000000e+00
  0.000000e+00   5.100000e+01   0.000000e+00
  0.000000e+00   5.200000e+01   0.000000e+00
  0.000000e+00   5.300000e+01   0.000000e+00
  0.000000e+00   5.400000e+01   0.000000e+00
  0.000000e+00   5.500000e+01   0.000000e+00
  0.000000e+00   5.600000e+01   0.000000e+00
  0.000000e+00   5.700000e+01   0.000000e+00
  0.000000e+00   5.800000e+01   0.000000e+00
  0.000000e+00   5.900000e+01   0.000000e+00
  0.000000e+00   6.000000e+01   0.000000e+00
  0.000000e+00   6.100000e+01   0.000000e+00
  0.000000e+00   6.200000e+01   0.000000e+00
  0.000000e+00   6.300000e+01   0.000000e+00
  1.000000e+00   0.000000e+00   0.000000e+00
  1.000000e+00   1.000000e+00   0.000000e+00
  1.000000e+00   2.000000e+00   0.000000e+00
  1.000000e+00   3.000000e+00   0.000000e+00
  1.000000e+00   4.000000e+00   0.000000e+00
  1.000000e+00   5.000000e+00   0.000000e+00
  1.000000e+00   6.000000e+00   0.000000e+00
  1.000000e+00   7.000000e+00   0.000000e+00
  1.000000e+00   8.000000e+00   0.000000e+00
  1.000000e+00   9.000000e+00   0.000000e+00
  1.000000e+00   1.000000e+01   0.000000e+00
  1.000000e+00   1.100000e+01   0.000000e+00
  1.000000e+00   1.200000e+01   0.000000e+00
  1.000000e+00   1.300000e+01   0.000000e+00
  1.000000e+00   1.400000e+01   0.000000e+00
  1.000000e+00   1.500000e+01   0.000000e+00
  1.000000e+00   1.600000e+01   0.000000e+00
  1.000000e+00   1.700000e+01   0.000000e+00
  1.000000e+00   1.800000e+01   0.000000e+00
  1.000000e+00   1.900000e+01   0.000000e+00
  1.000000e+00   2.000000e+01   0.000000e+00
  1.000000e+00   2.100000e+01   0.000000e+00
  1.000000e+00   2.200000e+01   0.000000e+00
  1.000000e+00   2.300000e+01   0.000000e+00
  1.000000e+00   2.400000e+01   0.000000e+00
  1.000000e+00   2.500000e+01   0.000000e+00
  1.000000e+00   2.600000e+01   0.000000e+00
  1.000000e+00   2.700000e+01   0.000000e+00
  1.000000e+00   2.800000e+01   0.000000e+00
  1.000000e+00   2.900000e+01   0.000000e+00
  1.000000e+00   3.000000e+01   0.000000e+00
  1.000000e+00   3.100000e+01   0.000000e+00
  1.000000e+00   3.200000e+01   0.000000e+00
  1.000000e+00   3.300000e+01   0.000000e+00
  1.000000e+00   3.400000e+01   0.000000e+00
  1.000000e+00   3.500000e+01   0.000000e+00
  1.000000e+00   3.600000e+01   0.000000e+00
  1.000000e+00   3.700000e+01   0.000000e+00
  1.000000e+00   3.800000e+01   0.000000e+00
  1.000000e+00   3.900000e+01   0.000000e+00
  1.000000e+00   4.000000e+01   0.000000e+00
  1.000000e+00   4.100000e+01   0.000000e+00
  1.000000e+00   4.200000e+01   0.000000e+00
  1.000000e+00   4.300000e+01   0.000000e+00
  1.000000e+00   4.400000e+01   0.000000e+00
  1.000000e+00   4.500000e+01   0.000000e+00
  1.000000e+00   4.600000e+01   0.000000e+00
  1.000000e+00   4.700000e+01   0.000000e+00
  1.000000e+00   4.800000e+01   0.000000e+00
  1.000000e+00   4.900000e+01   0.000000e+00
  1.000000e+00   5.000000e+01   0.000000e+00
  1.000000e+00   5.100000e+01   0.000000e+00
  1.000000e+00   5.200000e+01   0.000000e+00
  1.000000e+00   5.300000e+01   0.000000e+00
  1.000000e+00   5.400000e+01   0.000000e+00
  1.000000e+00   5.500000e+01   0.000000e+00
  1.000000e+00   5.600000e+01   0.000000e+00
  1.000000e+00   5.700000e+01   0.000000e+00
  1.000000e+00   5.800000e+01   0.000000e+00
  1.000000e+00   5.900000e+01   0.000000e+00
  1.000000e+00   6.000000e+01   0.000000e+00
  1.000000e+00   6.100000e+01   0.000000e+00
  1.000000e+00   6.200000e+01   0.000000e+00
  1.000000e+00   6.300000e+01   0.000000e+00
  2.000000e+00   0.000000e+00   0.000000e+00
  2.000000e+00   1.000000e+00   0.000000e+00
  2.000000e+00   2.000000e+00   0.000000e+00
  2.000000e+00   3.000000e+00   0.000000e+00
  2.000000e+00   4.000000e+00   0.000000e+00
  2.000000e+00   5.000000e+00   0.000000e+00
  2.000000e+00   6.000000e+00   0.000000e+00
  2.000000e+00   7.000000e+00   0.000000e+00
  2.000000e+00   8.000000e+00   0.000000e+00
  2.000000e+00   9.000000e+00   0.000000e+00
  2.000000e+00   1.000000e+01   0.000000e+00
  2.000000e+00   1.100000e+01   0.000000e+00
  2.000000e+00   1.200000e+01   0.000000e+00
  2.000000e+00   1.300000e+01   0.000000e+00
  2.000000e+00   1.400000e+01   0.000000e+00
  2.000000e+00   1.500000e+01   0.000000e+00
  2.000000e+00   1.600000e+01   0.000000e+00
  2.000000e+00   1.700000e+01   0.000000e+00
  2.000000e+00   1.800000e+01   0.000000e+00
  2.000000e+00   1.900000e+01   0.000000e+00
  2.000000e+00   2.000000e+01   0.000000e+00
  2.000000e+00   2.100000e+01   0.000000e+00
  2.000000e+00   2.200000e+01   0.000000e+00
  2.000000e+00   2.300000e+01   0.000000e+00
  2.000000e+00   2.400000e+01   0.000000e+00
  2.000000e+00   2.500000e+01   0.000000e+00
  2.000000e+00   2.600000e+01   0.000000e+00
  2.000000e+00   2.700000e+01   0.000000e+00
  2.000000e+00   2.800000e+01   0.000000e+00
  2.000000e+00   2.900000e+01   0.000000e+00
  2.000000e+00   3.000000e+01   0.000000e+00
  2.000000e+00   3.100000e+01   0.000000e+00
  2.000000e+00   3.200000e+01   0.000000e+00
  2.000000e+00   3.300000e+01   0.000000e+00
  2.000000e+00   3.400000e+01   0.000000e+00
  2.000000e+00   3.500000e+01   0.000000e+00
  2.000000e+00   3.600000e+01   0.000000e+00
  2.000000e+00   3.700000e+01   0.000000e+00
  2.000000e+00   3.800000e+01   0.000000e+00
  2.000000e+00   3.900000e+01   0.000000e+00
  2.000000e+00   4.000000e+01   0.000000e+00
  2.000000e+00   4.100000e+01   0.000000e+00
  2.000000e+00   4.200000e+01   0.000000e+00
  2.000000e+00   4.300000e+01   0.000000e+00
  2.000000e+00   4.400000e+01   0.000000e+00
  2.000000e+00   4.500000e+01   0.000000e+00
  2.000000e+00   4.600000e+01   0.000000e+00
  2.000000e+00   4.700000e+01   0.000000e+00
  2.000000e+00   4.800000e+01   0.000000e+00
  2.000000e+00   4.900000e+01   0.000000e+00
  2.000000e+00   5.000000e+01   0.000000e+00
  2.000000e+00   5.100000e+01   0.000000e+00
  2.000000e+00   5.200000e+01   0.000000e+00
  2.000000e+00   5.300000e+01   0.000000e+00
  2.000000e+00   5.400000e+01   0.000000e+00
  2.000000e+00   5.500000e+01   0.000000e+00
  2.000000e+00   5.600000e+01   0.000000e+00
  2.000000e+00   5.700000e+01   0.000000e+00
  2.000000e+00   5.800000e+01   0.000000e+00
  2.000000e+00   5.900000e+01   0.000000e+00
  2.000000e+00   6.000000e+01   0.000000e+00
  2.000000e+00   6.100000e+01   0.000000e+00
  2.000000e+00   6.200000e+01   0.000000e+00
  2.000000e+00   6.300000e+01   0.000000e+00
  3.000000e+00   0.000000e+00   0.000000e+00
  3.000000e+00   1.000000e+00   0.000000e+00
  3.000000e+00   2.000000e+00   0.000000e+00
  3.000000e+00   3.000000e+00   0.000000e+00
  3.000000e+00   4.000000e+00   0.000000e+00
  3.000000e+00   5.000000e+00   0.000000e+00
  3.000000e+00   6.000000e+00   0.000000e+00
  3.000000e+00   7.000000e+00   0.000000e+00
  3.000000e+00   8.000000e+00   0.000000e+00
  3.000000e+00   9.000000e+00   0.000000e+00
  3.000000e+00   1.000000e+01   0.000000e+00
  3.000000e+00   1.100000e+01   0.000000e+00
  3.000000e+00   1.200000e+01   0.000000e+00
  3.000000e+00   1.300000e+01   0.000000e+00
  3.000000e+00   1.400000e+01   0.000000e+00
  3.000000e+00   1.500000e+01   0.000000e+00
  3.000000e+00   1.600000e+01   0.000000e+00
  3.000000e+00   1.700000e+01   0.000000e+00
  3.000000e+00   1.800000e+01   0.000000e+00
  3.000000e+00   1.900000e+01   0.000000e+00
  3.000000e+00   2.000000e+01   0.000000e+00
  3.000000e+00   2.100000e+01   0.000000e+00
  3.000000e+00   2.200000e+01   0.000000e+00
  3.000000e+00   2.300000e+01   0.000000e+00
  3.000000e+00   2.400000e+01   0.000000e+00
  3.000000e+00   2.500000e+01   0.000000e+00
  3.000000e+00   2.600000e+01   0.000000e+00
[...]
POINT_DATA  4096
SCALARS CON float 1
LOOKUP_TABLE default
  2.048188e-01
  7.144689e-01
  9.469994e-01
  9.955308e-01
  9.999000e-01
  9.991510e-01
  9.642035e-01
  7.786749e-01
  2.431744e-01
  6.356108e-02
  2.854265e-02
  2.323166e-02
  2.327911e-02
  2.426852e-02
  2.554990e-02
  2.701867e-02
  2.848931e-02
  2.960217e-02
  2.988897e-02
  2.892673e-02
  2.653877e-02
  2.304768e-02
  1.954628e-02
  1.751199e-02
  1.998144e-02
  4.072385e-02
  1.339963e-01
  4.265152e-01
  7.910385e-01
  9.398452e-01
  9.819756e-01
  9.922180e-01
  9.931108e-01
  9.888032e-01
  9.748849e-01
  9.375508e-01
  8.471271e-01
  6.521485e-01
  3.343740e-01
  1.229938e-01
  4.757069e-02
  3.046570e-02
  2.986561e-02
  3.281932e-02
  3.522130e-02
  3.572880e-02
  3.426496e-02
  3.157553e-02
  2.885994e-02
  2.799890e-02
  3.275368e-02
  5.365069e-02
  1.158725e-01
  2.166932e-01
  2.906299e-01
  3.024039e-01
  2.505842e-01
  1.594312e-01
  7.583406e-02
  3.486792e-02
  2.130825e-02
  1.865809e-02
  2.361303e-02
  5.355912e-02
  1.458093e-01
  5.419118e-01
  8.775124e-01
  9.722117e-01
  9.916405e-01
  9.864284e-01
  9.325652e-01
  6.998279e-01
  2.134101e-01
  6.806791e-02
  4.743075e-02
  5.296050e-02
  6.101639e-02
  6.766050e-02
  7.339074e-02
  7.889363e-02
  8.387643e-02
  8.685519e-02
  8.562098e-02
  7.830127e-02
  6.445937e-02
  4.627248e-02
  3.019607e-02
  2.129615e-02
  1.809783e-02
  2.241445e-02
  5.126321e-02
  1.657058e-01
  4.761376e-01
  8.067689e-01
  9.414131e-01
  9.818168e-01
  9.928138e-01
  9.950991e-01
  9.935571e-01
  9.867793e-01
  9.665970e-01
  9.058686e-01
  7.200076e-01
  3.319630e-01
  9.816240e-02
  3.943186e-02
  2.805547e-02
  2.650941e-02
  2.653777e-02
  2.647258e-02
  2.612464e-02
  2.575592e-02
  2.607302e-02
  2.946224e-02
  4.601618e-02
  1.178011e-01
  3.615656e-01
  6.778897e-01
  8.092810e-01
  8.258155e-01
  7.579869e-01
  5.463162e-01
  2.421641e-01
  7.866471e-02
  2.963712e-02
  1.870378e-02
  2.061379e-02
  4.148416e-02
  7.616363e-02
  2.686800e-01
  6.502785e-01
  8.574386e-01
  9.208504e-01
  9.084175e-01
  7.940572e-01
  4.688189e-01
  1.594648e-01
  1.036212e-01
  1.463599e-01
  2.080720e-01
  2.543329e-01
  2.854474e-01
  3.090170e-01
  3.297511e-01
  3.471883e-01
  3.556727e-01
  3.463876e-01
  3.111014e-01
  2.452990e-01
  1.538608e-01
  7.230525e-02
  3.414722e-02
  2.116252e-02
  1.788981e-02
  2.389966e-02
  5.740175e-02
  1.789637e-01
  4.851374e-01
  8.032279e-01
  9.381359e-01
  9.810632e-01
  9.939705e-01
  9.978936e-01
  9.984441e-01
  9.950636e-01
  9.789841e-01
  9.029486e-01
  6.159051e-01
  1.790227e-01
  5.555209e-02
  3.108446e-02
  2.667178e-02
  2.588821e-02
  2.564741e-02
  2.547113e-02
  2.551977e-02
  2.673252e-02
  3.356216e-02
  6.805045e-02
  2.273549e-01
  6.860856e-01
  9.132995e-01
  9.697646e-01
  9.753363e-01
  9.523950e-01
  8.603138e-01
  5.807211e-01
  1.937042e-01
  5.279136e-02
  2.097596e-02
  1.725897e-02
  2.737209e-02
  3.466888e-02
  9.339813e-02
  2.426432e-01
  4.564748e-01
  6.024068e-01
  5.808827e-01
  4.011363e-01
  2.054839e-01
  1.436661e-01
  2.692068e-01
  5.236527e-01
  7.165459e-01
  7.953920e-01
  8.244998e-01
  8.381354e-01
  8.474566e-01
  8.547524e-01
  8.586030e-01
  8.547564e-01
  8.318961e-01
  7.527944e-01
  5.293130e-01
  2.186913e-01
  7.033097e-02
  2.967550e-02
  1.897931e-02
  1.695149e-02
  2.400998e-02
  5.818979e-02
  1.752668e-01
  4.643078e-01
  7.846904e-01
  9.297382e-01
  9.785760e-01
  9.943540e-01
  9.995740e-01
  9.999000e-01
  9.961996e-01
  9.553283e-01
  7.515036e-01
  2.361294e-01
  6.802763e-02
  3.415476e-02
  2.786664e-02
  2.664237e-02
  2.627015e-02
  2.603829e-02
  2.607731e-02
  2.763854e-02
  3.724568e-02
  8.824593e-02
  3.215774e-01
  8.246078e-01
  9.720617e-01
  9.986792e-01
  9.999000e-01
  9.932497e-01
  9.592979e-01
  8.177972e-01
  3.993009e-01
  1.016166e-01
  2.794810e-02
  1.503121e-02
  1.765470e-02
  1.783086e-02
  3.344690e-02
  6.817200e-02
  1.206446e-01
  1.625276e-01
  1.602919e-01
  1.221400e-01
  1.055525e-01
  2.098403e-01
  5.975836e-01
  8.579296e-01
  9.424389e-01
  9.657825e-01
  9.725124e-01
  9.752257e-01
  9.771829e-01
  9.790062e-01
  9.804293e-01
  9.804714e-01
  9.758034e-01
  9.505891e-01
  8.412483e-01
  4.926201e-01
  1.383652e-01
  4.359172e-02
  2.230995e-02
  1.656715e-02
  1.585872e-02
  2.307537e-02
  5.477626e-02
  1.592745e-01
  4.191016e-01
  7.468787e-01
  9.102408e-01
  9.694921e-01
  9.904379e-01
  9.969803e-01
  9.926684e-01
  9.480661e-01
  7.360124e-01
  2.312390e-01
  6.821445e-02
  3.507012e-02
  2.878604e-02
  2.749906e-02
  2.705921e-02
  2.672170e-02
  2.659427e-02
  2.806506e-02
  3.867441e-02
  9.734329e-02
  3.644029e-01
  8.594809e-01
  9.819691e-01
  9.999000e-01
  9.999000e-01
  9.993077e-01
  9.860787e-01
  9.194191e-01
  6.479066e-01
  1.878457e-01
  4.333598e-02
  1.489229e-02
  1.232289e-02
  1.104491e-02
  1.624250e-02
  2.516437e-02
  3.703124e-02
  4.699450e-02
  5.017842e-02
  5.290981e-02
  9.003301e-02
  2.872015e-01
  7.855224e-01
  9.568596e-01
  9.923427e-01
  9.974576e-01
  9.980812e-01
  9.982657e-01
  9.985918e-01
  9.990749e-01
  9.995994e-01
  9.999000e-01
  9.999000e-01
  9.924374e-01
  9.367394e-01
  6.833786e-01
  1.976243e-01
  5.554281e-02
  2.546230e-02
  1.788934e-02
  1.509378e-02
  1.508895e-02
  2.170691e-02
  4.868976e-02
  1.339882e-01
  3.467883e-01
  6.665371e-01
  8.548255e-01
  9.338505e-01
  9.580729e-01
  9.452101e-01
  8.547223e-01
  5.510174e-01
  1.649998e-01
  5.616219e-02
  3.363174e-02
  2.919745e-02
  2.825226e-02
  2.788793e-02
  2.751319e-02
  2.716903e-02
  2.810747e-02
  3.744512e-02
  9.203885e-02
  3.461227e-01
  8.494875e-01
  9.786778e-01
  9.992335e-01
  9.999000e-01
  9.999000e-01
  9.937353e-01
  9.600226e-01
  8.022397e-01
  3.263971e-01
  7.512735e-02
  1.860454e-02
  9.631881e-03
  7.708058e-03
  1.018543e-02
  1.410031e-02
  1.863621e-02
  2.299275e-02
  2.733910e-02
  3.789225e-02
  8.742873e-02
  3.139799e-01
  8.292393e-01
  9.755201e-01
  9.999000e-01
  9.999000e-01
  9.999000e-01
  9.999000e-01
  9.999000e-01
  9.999000e-01
  9.999000e-01
  9.999000e-01
  9.999000e-01
  9.927478e-01
  9.379817e-01
  6.866168e-01
  1.991174e-01
  5.648922e-02
  2.661314e-02
  1.927208e-02
  1.633102e-02
  1.482576e-02
  1.529525e-02
  2.102545e-02
  4.176623e-02
  1.016583e-01
  2.410873e-01
  4.736548e-01
  6.837789e-01
  7.611505e-01
  7.243502e-01
  5.357349e-01
  2.449357e-01
  8.543259e-02
  4.136448e-02
  3.140225e-02
  2.938120e-02
  2.909530e-02
  2.917293e-02
  2.915661e-02
  2.876805e-02
  2.880539e-02
  3.499752e-02
  7.677956e-02
  2.826763e-01
  7.971949e-01
  9.636258e-01
  9.956621e-01
  9.999000e-01
  9.999000e-01
  9.963508e-01
  9.784038e-01
  8.915982e-01
  5.490384e-01
  1.446365e-01
  3.150244e-02
  9.677491e-03
  6.806497e-03
  7.163366e-03
  9.803235e-03
  1.307745e-02
  1.661442e-02
  2.110523e-02
  3.163418e-02
  7.500831e-02
  2.703653e-01
  7.779780e-01
  9.576196e-01
  9.941726e-01
  9.986289e-01
  9.982603e-01
  9.973809e-01
  9.966040e-01
  9.959012e-01
  9.949606e-01
  9.927863e-01
  9.858936e-01
  9.594765e-01
  8.530057e-01
  5.061734e-01
  1.426830e-01
  4.637291e-02
  2.571007e-02
  2.043432e-02
  1.839581e-02
  1.768297e-02
  1.840151e-02
  2.094928e-02
  2.693233e-02
  4.175261e-02
  7.570167e-02
  1.373091e-01
  2.074986e-01
  2.422539e-01
  2.226028e-01
  1.559088e-01
  8.260825e-02
  4.480999e-02
  3.285697e-02
  3.001877e-02
  2.986144e-02
  3.084369e-02
  3.289611e-02
  3.528928e-02
  3.595236e-02
  3.435719e-02
  3.509324e-02
  5.939541e-02
  1.978030e-01
  6.594984e-01
  9.194481e-01
  9.839412e-01
  9.970686e-01
  9.990555e-01
  9.972488e-01
  9.878428e-01
  9.441083e-01
  7.528850e-01
  2.853838e-01
  6.757270e-02
  1.599136e-02
  1.207240e-02
  6.716792e-03
  7.604790e-03
  1.024269e-02
  1.353670e-02
  1.769277e-02
  2.571898e-02
  5.366536e-02
  1.753240e-01
  5.752742e-01
  8.598762e-01
  9.478041e-01
  9.688213e-01
  9.722426e-01
  9.713005e-01
  9.692173e-01
  9.662135e-01
  9.604881e-01
  9.463255e-01
  9.087613e-01
  8.128116e-01
  5.800067e-01
  2.367815e-01
  7.561921e-02
  3.404803e-02
  2.434565e-02
  2.195520e-02
  2.240140e-02
  2.679111e-02
  3.698103e-02
  5.057708e-02
  6.274926e-02
  7.332203e-02
  8.444387e-02
  9.631734e-02
  1.024190e-01
  9.408261e-02
  7.506619e-02
  5.498022e-02
  3.949564e-02
  3.191630e-02
  2.965426e-02
  2.974580e-02
  3.149496e-02
  3.651852e-02
  4.821412e-02
  6.432922e-02
  7.204780e-02
  6.479866e-02
  4.980540e-02
  4.939823e-02
  1.142203e-01
  3.966980e-01
  7.957721e-01
  9.468078e-01
  9.864255e-01
  9.958381e-01
  9.968460e-01
  9.924822e-01
  9.719064e-01
  8.795873e-01
  5.493356e-01
  1.684802e-01
  4.206844e-02
  4.049834e-02
  1.502313e-02
  9.293356e-03
  9.546849e-03
  1.189145e-02
  1.526938e-02
  2.052501e-02
  3.375259e-02
  8.147869e-02
  2.438535e-01
  5.316721e-01
  7.320005e-01
  8.028112e-01
  8.205869e-01
  8.209998e-01
  8.150916e-01
  8.039620e-01
  7.807125e-01
  7.238690e-01
  5.906060e-01
  3.760106e-01
  1.937925e-01
  8.232279e-02
  3.909768e-02
  2.692330e-02
  2.414875e-02
  2.532309e-02
  3.369331e-02
  6.193539e-02
  1.236038e-01
  2.008132e-01
  2.587069e-01
  2.930171e-01
  3.065190e-01
  2.951883e-01
  2.487597e-01
  1.667308e-01
  8.633177e-02
  4.604388e-02
  3.257741e-02
  2.907243e-02
  2.890817e-02
  3.059234e-02
  3.647131e-02
  5.674197e-02
  1.149416e-01
  2.023356e-01
  2.457827e-01
  2.133163e-01
  1.289688e-01
  6.622274e-02
  6.728223e-02
  1.794931e-01
  5.157910e-01
  8.302234e-01
  9.489922e-01
  9.842305e-01
  9.935702e-01
  9.939226e-01
  9.856288e-01
  9.480420e-01
  7.968635e-01
  4.110720e-01
  1.328396e-01
  1.582114e-01
  6.165046e-02
  2.845211e-02
  1.738036e-02
  1.474494e-02
  1.542401e-02
  1.797697e-02
  2.328086e-02
  3.715071e-02
  7.536148e-02
  1.469938e-01
  2.178992e-01
  2.593797e-01
  2.745556e-01
  2.743098e-01
  2.665456e-01
  2.538626e-01
  2.340159e-01
  2.015008e-01
  1.524626e-01
  9.694240e-02
  5.706875e-02
  3.525978e-02
  2.684504e-02
  2.472236e-02
  2.577113e-02
  3.348586e-02
  6.787530e-02
  1.926518e-01
  4.524178e-01
  6.944635e-01
  7.965177e-01
  8.297144e-01
  8.362475e-01
  8.194936e-01
  7.469770e-01
  5.378546e-01
  2.380556e-01
  8.123928e-02
  3.881621e-02
  2.991723e-02
  2.929082e-02
  3.287938e-02
  4.893653e-02
  1.177206e-01
  3.524923e-01
  6.551449e-01
  7.612180e-01
  6.914357e-01
  4.208483e-01
  1.494445e-01
  6.290757e-02
  7.677629e-02
  2.089995e-01
  5.302936e-01
  8.192438e-01
  9.397734e-01
  9.793111e-01
  9.905183e-01
  9.905311e-01
  9.780439e-01
  9.260468e-01
  7.508126e-01
  4.007038e-01
  5.187590e-01
  2.604662e-01
  1.287358e-01
  6.677318e-02
  3.943036e-02
  2.652270e-02
  2.141400e-02
  2.090626e-02
  2.378693e-02
  3.108117e-02
  4.335762e-02
  5.543274e-02
  6.242620e-02
  6.445720e-02
  6.368159e-02
  6.188647e-02
  5.963082e-02
  5.627176e-02
  5.065330e-02
  4.240744e-02
  3.362549e-02
  2.768376e-02
  2.487506e-02
  2.426547e-02
  2.509653e-02
  2.924929e-02
  4.947874e-02
  1.453357e-01
  4.884324e-01
  8.180759e-01
  9.349812e-01
  9.670541e-01
  9.753018e-01
  9.766171e-01
  9.720890e-01
  9.485377e-01
  8.516915e-01
  5.437288e-01
  1.621902e-01
  5.427174e-02
  3.268565e-02
  3.021099e-02
  3.619174e-02
  6.822866e-02
  2.185134e-01
  6.764466e-01
  9.097687e-01
  9.608170e-01
  9.317029e-01
  7.585981e-01
  3.079106e-01
  8.970925e-02
  4.619227e-02
  7.286840e-02
  1.947654e-01
  4.787088e-01
  7.789496e-01
  9.205172e-01
  9.706713e-01
  9.860851e-01
  9.870969e-01
  9.735431e-01
  9.234432e-01
  7.843854e-01
  8.662446e-01
  7.249499e-01
  5.026930e-01
  2.918173e-01
  1.663088e-01
  8.781497e-02
  4.588476e-02
  2.803521e-02
  2.274367e-02
  2.199877e-02
  2.267589e-02
  2.328791e-02
  2.322697e-02
  2.286284e-02
  2.300147e-02
  2.435847e-02
  2.692834e-02
  2.939681e-02
  3.018159e-02
  2.874291e-02
  2.623998e-02
  2.462611e-02
  2.430015e-02
  2.481599e-02
  2.647705e-02
  3.345254e-02
  6.867136e-02
  2.375990e-01
  7.337530e-01
  9.434411e-01
  9.905723e-01
  9.982452e-01
  9.993608e-01
  9.995488e-01
  9.990537e-01
  9.930955e-01
  9.508027e-01
  7.521164e-01
  2.456333e-01
  7.100515e-02
  3.570950e-02
  3.102460e-02
  3.848741e-02
  8.191665e-02
  2.867439e-01
  8.059067e-01
  9.714215e-01
  9.999000e-01
  9.877760e-01
  8.807732e-01
  4.512641e-01
  1.217919e-01
  4.248730e-02
  3.336132e-02
  6.115779e-02
  1.584579e-01
  3.917411e-01
  7.094560e-01
  8.849595e-01
  9.545545e-01
  9.789721e-01
  9.840266e-01
  9.749481e-01
  9.425915e-01
  9.669033e-01
  9.363073e-01
  8.770840e-01
  7.775673e-01
  5.994690e-01
  3.401643e-01
  1.512887e-01
  5.950672e-02
  3.063084e-02
  2.247007e-02
  1.948245e-02
  1.772006e-02
  1.665609e-02
  1.699941e-02
  2.042875e-02
  2.932791e-02
  4.390274e-02
  5.721890e-02
  6.133434e-02
  5.376530e-02
  4.013285e-02
  3.063254e-02
  2.701481e-02
  2.641343e-02
  2.794879e-02
  3.640473e-02
  8.049554e-02
  2.894642e-01
  8.139986e-01
  9.724669e-01
  9.999000e-01
  9.999000e-01
  9.999000e-01
  9.999000e-01
  9.999000e-01
  9.998687e-01
  9.715513e-01
  8.102716e-01
  2.830303e-01
  7.906853e-02
  3.725189e-02
  3.131321e-02
  3.838420e-02
  8.124792e-02
  2.844893e-01
  8.036098e-01
  9.705471e-01
  9.999000e-01
  9.898230e-01
  8.888496e-01
  4.689579e-01
  1.269614e-01
  4.211645e-02
  2.445496e-02
  2.588931e-02
  4.777737e-02
  1.177240e-01
  2.924921e-01
  5.940295e-01
  8.184105e-01
  9.251307e-01
  9.671248e-01
  9.808790e-01
  9.801952e-01
  9.853771e-01
  9.845086e-01
  9.758465e-01
  9.555007e-01
  9.047812e-01
  7.699335e-01
  4.575354e-01
  1.518715e-01
  5.241101e-02
  2.752344e-02
  2.023505e-02
  1.721442e-02
  1.665583e-02
  2.099400e-02
  3.793736e-02
  8.143206e-02
  1.550365e-01
  2.178740e-01
  2.311424e-01
  1.844444e-01
  1.044998e-01
  5.188879e-02
  3.344511e-02
  2.870175e-02
  2.904961e-02
  3.677104e-02
  7.840275e-02
  2.764331e-01
  7.943647e-01
  9.651682e-01
  9.974445e-01
  9.999000e-01
  9.999000e-01
  9.999000e-01
  9.999000e-01
  9.954751e-01
  9.579164e-01
  7.720505e-01
  2.579737e-01
  7.410564e-02
  3.679195e-02
  3.154833e-02
  3.690559e-02
  6.807492e-02
  2.160049e-01
  6.721922e-01
  9.087606e-01
  9.630949e-01
  9.421333e-01
  7.899659e-01
  3.437115e-01
  9.856997e-02
  3.793169e-02
  2.304386e-02
  1.895000e-02
  2.116863e-02
  3.566722e-02
  8.071332e-02
  1.951556e-01
  4.246898e-01
  7.102702e-01
  8.749763e-01
  9.482309e-01
  9.766542e-01
  9.709217e-01
  9.888561e-01
  9.949967e-01
  9.949219e-01
  9.849371e-01
  9.417361e-01
  7.646425e-01
  3.062892e-01
  8.863496e-02
  3.550889e-02
  2.202635e-02
  1.800996e-02
  2.052555e-02
  4.001535e-02
  1.113712e-01
  2.951931e-01
  5.704174e-01
  7.350109e-01
  7.558577e-01
  6.326282e-01
  3.382575e-01
  1.159631e-01
  4.794532e-02
  3.208865e-02
  2.970015e-02
  3.465303e-02
  6.363741e-02
  2.029734e-01
  6.487437e-01
  9.019819e-01
  9.695559e-01
  9.848834e-01
  9.882247e-01
  9.873626e-01
  9.818698e-01
  9.614889e-01
  8.793776e-01
  5.966419e-01
  1.810053e-01
  5.949527e-02
  3.609535e-02
  3.473563e-02
  3.990828e-02
  5.647779e-02
  1.246179e-01
  3.597940e-01
  6.629947e-01
  7.749326e-01
  7.257870e-01
  4.807639e-01
  1.759974e-01
  6.317635e-02
  3.336475e-02
  2.409351e-02
  1.957134e-02
  1.715663e-02
  1.792904e-02
  2.597316e-02
  5.174222e-02
  1.193598e-01
  2.758913e-01
  5.584749e-01
  8.002971e-01
  9.221338e-01
  8.899952e-01
  9.623502e-01
  9.896373e-01
  9.996864e-01
  9.999000e-01
  9.839012e-01
  8.729743e-01
  4.326141e-01
  1.204138e-01
  4.219021e-02
  2.359245e-02
  2.044486e-02
  3.398595e-02
  1.024893e-01
  3.318881e-01
  7.013508e-01
  8.898465e-01
  9.515957e-01
  9.575980e-01
  9.035535e-01
  6.815078e-01
  2.348469e-01
  7.230224e-02
  3.654697e-02
  2.999981e-02
  3.151640e-02
  4.507373e-02
  1.073030e-01
  3.312881e-01
  6.644162e-01
  8.280439e-01
  8.879297e-01
  9.076884e-01
  9.030447e-01
  8.736293e-01
  7.998783e-01
  6.091677e-01
  2.824042e-01
  9.435623e-02
  4.571743e-02
  4.161064e-02
  5.417831e-02
  7.072821e-02
  8.170880e-02
  9.474274e-02
  1.401389e-01
  2.189629e-01
  2.623741e-01
  2.357061e-01
  1.518966e-01
  7.580101e-02
  4.596844e-02
  3.627079e-02
  3.067390e-02
  2.502438e-02
  1.994169e-02
  1.664908e-02
  1.580060e-02
  1.929110e-02
  3.296598e-02
  7.263228e-02
  1.763858e-01
  4.023643e-01
  7.119750e-01
  6.156287e-01
  8.419947e-01
  9.420135e-01
  9.795720e-01
  9.907907e-01
  9.750369e-01
  8.595131e-01
  4.202323e-01
  1.184936e-01
  4.203592e-02
  2.443967e-02
  2.771545e-02
  7.278425e-02
  2.617514e-01
  6.745313e-01
  9.067068e-01
  9.769019e-01
  9.955131e-01
  9.969522e-01
  9.721647e-01
  8.322076e-01
  3.455099e-01
  9.605918e-02
  4.029745e-02
  2.988978e-02
  2.902676e-02
  3.320724e-02
  5.104410e-02
  1.088440e-01
  2.221820e-01
  3.545396e-01
  4.770410e-01
  5.424531e-01
  5.257872e-01
  4.360147e-01
  3.128879e-01
  1.925131e-01
  9.465710e-02
  5.027370e-02
  4.556466e-02
  7.322543e-02
  1.480595e-01
  2.295773e-01
  2.547190e-01
  2.110994e-01
  1.352038e-01
  9.478562e-02
  8.420085e-02
  7.496499e-02
  6.184337e-02
  5.659946e-02
  6.410990e-02
  6.989170e-02
  6.378235e-02
  4.740367e-02
  3.086813e-02
  2.122068e-02
  1.660670e-02
  1.471677e-02
  1.566645e-02
  2.291021e-02
  4.721988e-02
  1.175251e-01
  2.972263e-01
  2.160103e-01
  4.734652e-01
  7.342189e-01
  8.582031e-01
  8.994258e-01
  8.674141e-01
  6.853446e-01
  2.719467e-01
  8.397569e-02
  3.549642e-02
  2.644462e-02
  4.830105e-02
  1.692005e-01
  5.470108e-01
  8.711160e-01
  9.709505e-01
  9.952898e-01
  9.999000e-01
  9.999000e-01
  9.839637e-01
  8.712280e-01
  4.002476e-01
  1.073508e-01
  4.127151e-02
  2.911032e-02
  2.731941e-02
  2.800980e-02
  3.168864e-02
  4.270856e-02
  6.424505e-02
  9.204777e-02
  1.198844e-01
  1.358201e-01
  1.315248e-01
  1.100199e-01
  8.276806e-02
  5.873914e-02
  4.243693e-02
  4.074282e-02
  6.717068e-02
  1.813633e-01
  4.819373e-01
  7.217408e-01
  7.669365e-01
  6.449758e-01
  3.367791e-01
  1.180889e-01
  5.755547e-02
  4.718314e-02
  5.873414e-02
  1.064720e-01
  1.894897e-01
  2.411173e-01
  2.242945e-01
  1.497617e-01
  7.212758e-02
  3.455706e-02
  2.155318e-02
  1.682603e-02
  1.478760e-02
  1.470923e-02
  1.883274e-02
  3.484379e-02
  8.448626e-02
  6.065075e-02
  1.334874e-01
  2.562625e-01
  4.030901e-01
  4.965003e-01
  4.483080e-01
  2.780636e-01
  1.146739e-01
  4.851335e-02
  2.925963e-02
  3.505434e-02
  1.008234e-01
  3.667314e-01
  7.897549e-01
  9.507941e-01
  9.903300e-01
  9.990038e-01
  9.999000e-01
  9.995913e-01
  9.815057e-01
  8.637046e-01
  3.812084e-01
  1.006235e-01
  3.861011e-02
  2.752204e-02
  2.585015e-02
  2.564838e-02
  2.583799e-02
  2.697511e-02
  2.962750e-02
  3.338994e-02
  3.739611e-02
  3.989266e-02
  3.953950e-02
  3.676309e-02
  3.340464e-02
  3.121834e-02
  3.241080e-02
  4.534843e-02
  1.085102e-01
  3.664130e-01
  7.981020e-01
  9.433973e-01
  9.618266e-01
  8.997872e-01
  6.412277e-01
  2.002629e-01
  6.921437e-02
  5.464658e-02
  1.075489e-01
  3.136033e-01
  6.228584e-01
  7.583801e-01
  7.287767e-01
  5.194361e-01
  2.171164e-01
  7.103005e-02
  3.129611e-02
  2.113705e-02
  1.786305e-02
  1.643799e-02
  1.628456e-02
  1.891507e-02
  2.948158e-02
  2.778596e-02
  4.201132e-02
  6.931399e-02
  1.058423e-01
  1.321090e-01
  1.229869e-01
  8.474084e-02
  4.858384e-02
  3.109279e-02
  2.902005e-02
  5.999745e-02
  2.193388e-01
  6.529812e-01
  9.124815e-01
  9.812290e-01
  9.967093e-01
  9.999000e-01
  9.999000e-01
  9.968209e-01
  9.696839e-01
  8.201902e-01
  3.097262e-01
  8.139538e-02
  3.344652e-02
  2.534091e-02
  2.430866e-02
  2.406272e-02
  2.361206e-02
  2.310816e-02
  2.295183e-02
  2.346026e-02
  2.471520e-02
  2.625399e-02
  2.718844e-02
  2.717392e-02
  2.690346e-02
  2.768189e-02
  3.203629e-02
  5.124973e-02
  1.419662e-01
  5.017072e-01
  8.963631e-01
  9.915216e-01
  9.999000e-01
  9.620602e-01
  7.674467e-01
  2.543462e-01
  8.247315e-02
  7.329010e-02