# vtk DataFile Version 2.0
time_10.vtk
ASCII
DATASET STRUCTURED_GRID
DIMENSIONS    64    64     1
POINTS    4096 float
  0.000000e+00   0.000000e+00   0.000000e+00
  0.000000e+00   1.000000e+00   0.000000e+00
  0.000000e+00   2.000000e+00   0.000000e+00
  0.000000e+00   3.000000e+00   0.000000e+00
  0.000000e+00   4.000000e+00   0.000000e+00
  0.000000e+00   5.000000e+00   0.000000e+00
  0.000000e+00   6.000000e+00   0.000000e+00
  0.000000e+00   7.000000e+00   0.000000e+00
  0.000000e+00   8.000000e+00   0.000000e+00
  0.000000e+00   9.000000e+00   0.000000e+00
  0.000000e+00   1.000000e+01   0.000000e+00
  0.000000e+00   1.100000e+01   0.000000e+00
  0.000000e+00   1.200000e+01   0.000000e+00
  0.000000e+00   1.300000e+01   0.000000e+00
  0.000000e+00   1.400000e+01   0.000000e+00
  0.000000e+00   1.500000e+01   0.000000e+00
  0.000000e+00   1.600000e+01   0.000000e+00
  0.000000e+00   1.700000e+01   0.000000e+00
  0.000000e+00   1.800000e+01   0.000000e+00
  0.000000e+00   1.900000e+01   0.000000e+00
  0.000000e+00   2.000000e+01   0.000000e+00
  0.000000e+00   2.100000e+01   0.000000e+00
  0.000000e+00   2.200000e+01   0.000000e+00
  0.000000e+00   2.300000e+01   0.000000e+00
  0.000000e+00   2.400000e+01   0.000000e+00
  0.000000e+00   2.500000e+01   0.000000e+00
  0.000000e+00   2.600000e+01   0.000000e+00
  0.000000e+00   2.700000e+01   0.000000e+00
  0.000000e+00   2.800000e+01   0.000000e+00
  0.000000e+00   2.900000e+01   0.000000e+00
  0.000000e+00   3.000000e+01   0.000000e+00
  0.000000e+00   3.100000e+01   0.000000e+00
  0.000000e+00   3.200000e+01   0.000000e+00
  0.000000e+00   3.300000e+01   0.000000e+00
  0.000000e+00   3.400000e+01   0.000000e+00
  0.000000e+00   3.500000e+01   0.000000e+00
  0.000000e+00   3.600000e+01   0.000000e+00
  0.000000e+00   3.700000e+01   0.000000e+00
  0.000000e+00   3.800000e+01   0.000000e+00
  0.000000e+00   3.900000e+01   0.000000e+00
  0.000000e+00   4.000000e+01   0.000000e+00
  0.000000e+00   4.100000e+01   0.000000e+00
  0.000000e+00   4.200000e+01   0.000000e+00
  0.000000e+00   4.300000e+01   0.000000e+00
  0.000000e+00   4.400000e+01   0.000000e+00
  0.000000e+00   4.500000e+01   0.000000e+00
  0.000000e+00   4.600000e+01   0.000000e+00
  0.000000e+00   4.700000e+01   0.000000e+00
  0.000000e+00   4.800000e+01   0.000000e+00
  0.000000e+00   4.900000e+01   0.000000e+00
  0.000000e+00   5.000000e+01   0.000000e+00
  0.000000e+00   5.100000e+01   0.000000e+00
  0.000000e+00   5.200000e+01   0.000000e+00
  0.000000e+00   5.300000e+01   0.000000e+00
  0.000000e+00   5.400000e+01   0.000000e+00
  0.000000e+00   5.500000e+01   0.000000e+00
  0.000000e+00   5.600000e+01   0.000000e+00
  0.000000e+00   5.700000e+01   0.000000e+00
  0.000000e+00   5.800000e+01   0.000000e+00
  0.000000e+00   5.900000e+01   0.000000e+00
  0.000000e+00   6.000000e+01   0.000000e+00
  0.000000e+00   6.100000e+01   0.000000e+00
  0.000000e+00   6.200000e+01   0.000000e+00
  0.000000e+00   6.300000e+01   0.000000e+00
  1.000000e+00   0.000000e+00   0.000000e+00
  1.000000e+00   1.000000e+00   0.000000e+00
  1.000000e+00   2.000000e+00   0.000000e+00
  1.000000e+00   3.000000e+00   0.000000e+00
  1.000000e+00   4.000000e+00   0.000000e+00
  1.000000e+00   5.000000e+00   0.000000e+00
  1.000000e+00   6.000000e+00   0.000000e+00
  1.000000e+00   7.000000e+00   0.000000e+00
  1.000000e+00   8.000000e+00   0.000000e+00
  1.000000e+00   9.000000e+00   0.000000e+00
  1.000000e+00   1.000000e+01   0.000000e+00
  1.000000e+00   1.100000e+01   0.000000e+00
  1.000000e+00   1.200000e+01   0.000000e+00
  1.000000e+00   1.300000e+01   0.000000e+00
  1.000000e+00   1.400000e+01   0.000000e+00
  1.000000e+00   1.500000e+01   0.000000e+00
  1.000000e+00   1.600000e+01   0.000000e+00
  1.000000e+00   1.700000e+01   0.000000e+00
  1.000000e+00   1.800000e+01   0.000000e+00
  1.000000e+00   1.900000e+01   0.000000e+00
  1.000000e+00   2.000000e+01   0.000000e+00
  1.000000e+00   2.100000e+01   0.000000e+00
  1.000000e+00   2.200000e+01   0.000000e+00
  1.000000e+00   2.300000e+01   0.000000e+00
  1.000000e+00   2.400000e+01   0.000000e+00
  1.000000e+00   2.500000e+01   0.000000e+00
  1.000000e+00   2.600000e+01   0.000000e+00
  1.000000e+00   2.700000e+01   0.000000e+00
  1.000000e+00   2.800000e+01   0.000000e+00
  1.000000e+00   2.900000e+01   0.000000e+00
  1.000000e+00   3.000000e+01   0.000000e+00
  1.000000e+00   3.100000e+01   0.000000e+00
  1.000000e+00   3.200000e+01   0.000000e+00
  1.000000e+00   3.300000e+01   0.000000e+00
  1.000000e+00   3.400000e+01   0.000000e+00
  1.000000e+00   3.500000e+01   0.000000e+00
  1.000000e+00   3.600000e+01   0.000000e+00
  1.000000e+00   3.700000e+01   0.000000e+00
  1.000000e+00   3.800000e+01   0.000000e+00
  1.000000e+00   3.900000e+01   0.000000e+00
  1.000000e+00   4.000000e+01   0.000000e+00
  1.000000e+00   4.100000e+01   0.000000e+00
  1.000000e+00   4.200000e+01   0.000000e+00
  1.000000e+00   4.300000e+01   0.000000e+00
  1.000000e+00   4.400000e+01   0.000000e+00
  1.000000e+00   4.500000e+01   0.000000e+00
  1.000000e+00   4.600000e+01   0.000000e+00
  1.000000e+00   4.700000e+01   0.000000e+00
  1.000000e+00   4.800000e+01   0.000000e+00
  1.000000e+00   4.900000e+01   0.000000e+00
  1.000000e+00   5.000000e+01   0.000000e+00
  1.000000e+00   5.100000e+01   0.000000e+00
  1.000000e+00   5.200000e+01   0.000000e+00
  1.000000e+00   5.300000e+01   0.000000e+00
  1.000000e+00   5.400000e+01   0.000000e+00
  1.000000e+00   5.500000e+01   0.000000e+00
  1.000000e+00   5.600000e+01   0.000000e+00
  1.000000e+00   5.700000e+01   0.000000e+00
  1.000000e+00   5.800000e+01   0.000000e+00
  1.000000e+00   5.900000e+01   0.000000e+00
  1.000000e+00   6.000000e+01   0.000000e+00
  1.000000e+00   6.100000e+01   0.000000e+00
  1.000000e+00   6.200000e+01   0.000000e+00
  1.000000e+00   6.300000e+01   0.000000e+00
  2.000000e+00   0.000000e+00   0.000000e+00
  2.000000e+00   1.000000e+00   0.000000e+00
  2.000000e+00   2.000000e+00   0.000000e+00
  2.000000e+00   3.000000e+00   0.000000e+00
  2.000000e+00   4.000000e+00   0.000000e+00
  2.000000e+00   5.000000e+00   0.000000e+00
  2.000000e+00   6.000000e+00   0.000000e+00
  2.000000e+00   7.000000e+00   0.000000e+00
  2.000000e+00   8.000000e+00   0.000000e+00
  2.000000e+00   9.000000e+00   0.000000e+00
  2.000000e+00   1.000000e+01   0.000000e+00
  2.000000e+00   1.100000e+01   0.000000e+00
  2.000000e+00   1.200000e+01   0.000000e+00
  2.000000e+00   1.300000e+01   0.000000e+00
  2.000000e+00   1.400000e+01   0.000000e+00
  2.000000e+00   1.500000e+01   0.000000e+00
  2.000000e+00   1.600000e+01   0.000000e+00
  2.000000e+00   1.700000e+01   0.000000e+00
  2.000000e+00   1.800000e+01   0.000000e+00
  2.000000e+00   1.900000e+01   0.000000e+00
  2.000000e+00   2.000000e+01   0.000000e+00
  2.000000e+00   2.100000e+01   0.000000e+00
  2.000000e+00   2.200000e+01   0.000000e+00
  2.000000e+00   2.300000e+01   0.000000e+00
  2.000000e+00   2.400000e+01   0.000000e+00
  2.000000e+00   2.500000e+01   0.000000e+00
  2.000000e+00   2.600000e+01   0.000000e+00
  2.000000e+00   2.700000e+01   0.000000e+00
  2.000000e+00   2.800000e+01   0.000000e+00
  2.000000e+00   2.900000e+01   0.000000e+00
  2.000000e+00   3.000000e+01   0.000000e+00
  2.000000e+00   3.100000e+01   0.000000e+00
  2.000000e+00   3.200000e+01   0.000000e+00
  2.000000e+00   3.300000e+01   0.000000e+00
  2.000000e+00   3.400000e+01   0.000000e+00
  2.000000e+00   3.500000e+01   0.000000e+00
  2.000000e+00   3.600000e+01   0.000000e+00
  2.000000e+00   3.700000e+01   0.000000e+00
  2.000000e+00   3.800000e+01   0.000000e+00
  2.000000e+00   3.900000e+01   0.000000e+00
  2.000000e+00   4.000000e+01   0.000000e+00
  2.000000e+00   4.100000e+01   0.000000e+00
  2.000000e+00   4.200000e+01   0.000000e+00
  2.000000e+00   4.300000e+01   0.000000e+00
  2.000000e+00   4.400000e+01   0.000000e+00
  2.000000e+00   4.500000e+01   0.000000e+00
  2.000000e+00   4.600000e+01   0.000000e+00
  2.000000e+00   4.700000e+01   0.000000e+00
  2.000000e+00   4.800000e+01   0.000000e+00
  2.000000e+00   4.900000e+01   0.000000e+00
  2.000000e+00   5.000000e+01   0.000000e+00
  2.000000e+00   5.100000e+01   0.000000e+00
  2.000000e+00   5.200000e+01   0.000000e+00
  2.000000e+00   5.300000e+01   0.000000e+00
  2.000000e+00   5.400000e+01   0.000000e+00
  2.000000e+00   5.500000e+01   0.000000e+00
  2.000000e+00   5.600000e+01   0.000000e+00
  2.000000e+00   5.700000e+01   0.000000e+00
  2.000000e+00   5.800000e+01   0.000000e+00
  2.000000e+00   5.900000e+01   0.000000e+00
  2.000000e+00   6.000000e+01   0.000000e+00
  2.000000e+00   6.100000e+01   0.000000e+00
  2.000000e+00   6.200000e+01   0.000000e+00
  2.000000e+00   6.300000e+01   0.000000e+00
  3.000000e+00   0.000000e+00   0.000000e+00
  3.000000e+00   1.000000e+00   0.000000e+00
  3.000000e+00   2.000000e+00   0.000000e+00
  3.000000e+00   3.000000e+00   0.000000e+00
  3.000000e+00   4.000000e+00   0.000000e+00
  3.000000e+00   5.000000e+00   0.000000e+00
  3.000000e+00   6.000000e+00   0.000000e+00
  3.000000e+00   7.000000e+00   0.000000e+00
  3.000000e+00   8.000000e+00   0.000000e+00
  3.000000e+00   9.000000e+00   0.000000e+00
  3.000000e+00   1.000000e+01   0.000000e+00
  3.000000e+00   1.100000e+01   0.000000e+00
  3.000000e+00   1.200000e+01   0.000000e+00
  3.000000e+00   1.300000e+01   0.000000e+00
  3.000000e+00   1.400000e+01   0.000000e+00
  3.000000e+00   1.500000e+01   0.000000e+00
  3.000000e+00   1.600000e+01   0.000000e+00
  3.000000e+00   1.700000e+01   0.000000e+00
  3.000000e+00   1.800000e+01   0.000000e+00
  3.000000e+00   1.900000e+01   0.000000e+00
  3.000000e+00   2.000000e+01   0.000000e+00
  3.000000e+00   2.100000e+01   0.000000e+00
  3.000000e+00   2.200000e+01   0.000000e+00
  3.000000e+00   2.300000e+01   0.000000e+00
  3.000000e+00   2.400000e+01   0.000000e+00
  3.000000e+00   2.500000e+01   0.000000e+00
  3.000000e+00   2.600000e+01   0.000000e+00
[...]
POINT_DATA  4096
SCALARS CON float 1
LOOKUP_TABLE default
  6.554557e-02
  2.343915e-01
  7.457470e-01
  9.556614e-01
  9.995523e-01
  9.927483e-01
  9.077178e-01
  5.505333e-01
  1.533223e-01
  5.101265e-02
  3.068522e-02
  2.819315e-02
  3.063750e-02
  3.501093e-02
  3.850491e-02
  3.884285e-02
  3.556121e-02
  3.003353e-02
  2.468724e-02
  2.062145e-02
  1.762598e-02
  1.561311e-02
  1.431805e-02
  1.441148e-02
  2.126398e-02
  6.009026e-02
  2.260482e-01
  6.369033e-01
  8.973489e-01
  9.748755e-01
  9.942021e-01
  9.987369e-01
  9.995691e-01
  9.991891e-01
  9.971553e-01
  9.877624e-01
  9.453271e-01
  7.742685e-01
  3.414020e-01
  9.036070e-02
  3.188709e-02
  2.202500e-02
  2.238126e-02
  2.533115e-02
  2.881252e-02
  3.121856e-02
  3.167918e-02
  3.022365e-02
  2.776593e-02
  2.593747e-02
  2.637092e-02
  3.123218e-02
  4.559630e-02
  7.367546e-02
  1.062639e-01
  1.239363e-01
  1.124256e-01
  8.182077e-02
  5.162420e-02
  3.197043e-02
  2.335709e-02
  2.102779e-02
  2.232093e-02
  2.992844e-02
  4.900987e-02
  1.583530e-01
  5.445034e-01
  8.530568e-01
  9.431529e-01
  9.328395e-01
  7.948455e-01
  3.863091e-01
  1.149431e-01
  5.003847e-02
  4.576440e-02
  6.368628e-02
  9.370944e-02
  1.302043e-01
  1.572646e-01
  1.622254e-01
  1.433122e-01
  1.086907e-01
  7.452295e-02
  4.875860e-02
  3.066520e-02
  2.092295e-02
  1.658957e-02
  1.466346e-02
  1.567421e-02
  2.826905e-02
  8.951821e-02
  3.114553e-01
  7.127591e-01
  9.175747e-01
  9.788084e-01
  9.949932e-01
  9.991085e-01
  9.999000e-01
  9.997471e-01
  9.974660e-01
  9.825107e-01
  9.039941e-01
  5.916861e-01
  1.596327e-01
  4.569774e-02
  2.464469e-02
  2.186316e-02
  2.237582e-02
  2.330398e-02
  2.396845e-02
  2.420631e-02
  2.409865e-02
  2.398911e-02
  2.481033e-02
  2.950878e-02
  4.847423e-02
  1.110799e-01
  2.406783e-01
  3.814266e-01
  4.553521e-01
  4.131874e-01
  2.899681e-01
  1.587765e-01
  6.926351e-02
  3.207754e-02
  2.117317e-02
  2.000520e-02
  2.516734e-02
  3.105356e-02
  7.489584e-02
  2.276754e-01
  5.069105e-01
  6.874318e-01
  6.694261e-01
  4.482560e-01
  1.798337e-01
  7.337011e-02
  6.216168e-02
  1.135476e-01
  2.267676e-01
  3.741925e-01
  5.319203e-01
  6.324060e-01
  6.503905e-01
  5.880344e-01
  4.538816e-01
  3.051027e-01
  1.827722e-01
  8.809791e-02
  3.964332e-02
  2.274398e-02
  1.697553e-02
  1.490667e-02
  1.729097e-02
  3.590244e-02
  1.158186e-01
  3.682426e-01
  7.458443e-01
  9.246758e-01
  9.797933e-01
  9.952489e-01
  9.993623e-01
  9.999000e-01
  9.999000e-01
  9.946605e-01
  9.508971e-01
  7.346815e-01
  2.161829e-01
  5.796081e-02
  2.761492e-02
  2.275536e-02
  2.242967e-02
  2.276031e-02
  2.303254e-02
  2.314483e-02
  2.318668e-02
  2.356995e-02
  2.608815e-02
  3.902240e-02
  9.890056e-02
  3.226204e-01
  6.756964e-01
  8.419435e-01
  8.861138e-01
  8.659745e-01
  7.675725e-01
  5.161015e-01
  2.109541e-01
  6.793818e-02
  2.695006e-02
  1.838383e-02
  1.988666e-02
  1.999430e-02
  3.372866e-02
  7.149827e-02
  1.412102e-01
  1.989364e-01
  1.954410e-01
  1.338907e-01
  7.373383e-02
  6.050009e-02
  1.173609e-01
  3.446935e-01
  6.707953e-01
  8.331541e-01
  8.990377e-01
  9.260519e-01
  9.303105e-01
  9.150434e-01
  8.757968e-01
  7.959401e-01
  6.108437e-01
  2.981227e-01
  9.904950e-02
  3.786221e-02
  2.170348e-02
  1.654077e-02
  1.492396e-02
  1.878052e-02
  4.197217e-02
  1.323938e-01
  3.933782e-01
  7.518936e-01
  9.221726e-01
  9.775913e-01
  9.944125e-01
  9.993896e-01
  9.999000e-01
  9.962845e-01
  9.565297e-01
  7.542628e-01
  2.287459e-01
  6.197613e-02
  2.936345e-02
  2.381194e-02
  2.315155e-02
  2.325698e-02
  2.336141e-02
  2.334381e-02
  2.331052e-02
  2.392366e-02
  2.859486e-02
  5.485447e-02
  1.850412e-01
  6.259162e-01
  8.994643e-01
  9.725244e-01
  9.863868e-01
  9.808033e-01
  9.488543e-01
  8.367612e-01
  5.242170e-01
  1.714785e-01
  4.826772e-02
  1.983470e-02
  1.595579e-02
  1.412217e-02
  1.882583e-02
  2.855583e-02
  4.352293e-02
  5.623952e-02
  5.778915e-02
  4.934783e-02
  4.495193e-02
  7.139997e-02
  2.182999e-01
  6.670119e-01
  9.058157e-01
  9.697418e-01
  9.854539e-01
  9.897805e-01
  9.902533e-01
  9.878917e-01
  9.810893e-01
  9.615764e-01
  8.919330e-01
  6.552640e-01
  2.263287e-01
  6.693721e-02
  2.915940e-02
  1.939024e-02
  1.575266e-02
  1.483886e-02
  1.982265e-02
  4.503597e-02
  1.359420e-01
  3.831379e-01
  7.278117e-01
  9.036464e-01
  9.664875e-01
  9.878780e-01
  9.929023e-01
  9.822242e-01
  9.165279e-01
  6.491359e-01
  1.878197e-01
  5.541175e-02
  2.927516e-02
  2.465307e-02
  2.402795e-02
  2.404815e-02
  2.404956e-02
  2.390616e-02
  2.374124e-02
  2.446586e-02
  3.105243e-02
  6.968332e-02
  2.600709e-01
  7.821184e-01
  9.616434e-01
  9.968502e-01
  9.999000e-01
  9.993013e-01
  9.900589e-01
  9.499732e-01
  7.955374e-01
  3.864456e-01
  1.049633e-01
  2.922643e-02
  1.439553e-02
  1.124593e-02
  1.271702e-02
  1.663272e-02
  2.160425e-02
  2.608646e-02
  2.871655e-02
  3.056735e-02
  3.895619e-02
  8.496806e-02
  2.989664e-01
  8.098630e-01
  9.681449e-01
  9.972967e-01
  9.999000e-01
  9.999000e-01
  9.998741e-01
  9.998554e-01
  9.995311e-01
  9.961336e-01
  9.708955e-01
  8.361027e-01
  3.710946e-01
  1.019361e-01
  3.748445e-02
  2.248369e-02
  1.754642e-02
  1.515355e-02
  1.488638e-02
  2.032563e-02
  4.426568e-02
  1.234684e-01
  3.273095e-01
  6.443477e-01
  8.371142e-01
  9.181276e-01
  9.377054e-01
  9.027716e-01
  7.534301e-01
  3.831778e-01
  1.129379e-01
  4.254056e-02
  2.795913e-02
  2.527486e-02
  2.495317e-02
  2.500606e-02
  2.497709e-02
  2.474644e-02
  2.443134e-02
  2.507852e-02
  3.256921e-02
  7.796818e-02
  2.994785e-01
  8.293789e-01
  9.753733e-01
  9.997178e-01
  9.999000e-01
  9.999000e-01
  9.978168e-01
  9.833180e-01
  9.187993e-01
  6.742268e-01
  2.341202e-01
  5.835776e-02
  1.778398e-02
  1.256156e-02
  9.912652e-03
  1.197816e-02
  1.518121e-02
  1.843592e-02
  2.144682e-02
  2.526368e-02
  3.626333e-02
  8.686318e-02
  3.166082e-01
  8.329451e-01
  9.767536e-01
  9.999000e-01
  9.999000e-01
  9.999000e-01
  9.999000e-01
  9.999000e-01
  9.999000e-01
  9.999000e-01
  9.865995e-01
  8.840746e-01
  4.484512e-01
  1.220984e-01
  4.252471e-02
  2.473225e-02
  1.931788e-02
  1.663755e-02
  1.511187e-02
  1.536358e-02
  2.052212e-02
  3.981804e-02
  9.523820e-02
  2.200682e-01
  4.205582e-01
  6.178598e-01
  6.799671e-01
  5.871289e-01
  3.522284e-01
  1.466117e-01
  5.705120e-02
  3.240766e-02
  2.681881e-02
  2.587180e-02
  2.595135e-02
  2.616755e-02
  2.624478e-02
  2.603979e-02
  2.559328e-02
  2.591920e-02
  3.296079e-02
  7.798814e-02
  2.998449e-01
  8.301716e-01
  9.748243e-01
  9.989685e-01
  9.999000e-01
  9.999000e-01
  9.991435e-01
  9.932958e-01
  9.664929e-01
  8.509162e-01
  4.790213e-01
  1.372574e-01
  3.480246e-02
  2.649850e-02
  1.158871e-02
  1.021136e-02
  1.233684e-02
  1.528964e-02
  1.841136e-02
  2.237174e-02
  3.213143e-02
  7.381117e-02
  2.642038e-01
  7.693080e-01
  9.546676e-01
  9.934911e-01
  9.992303e-01
  9.998354e-01
  9.998432e-01
  9.999000e-01
  9.999000e-01
  9.978879e-01
  9.761490e-01
  8.523535e-01
  3.974817e-01
  1.102427e-01
  4.105689e-02
  2.542761e-02
  2.065286e-02
  1.829155e-02
  1.682044e-02
  1.630028e-02
  1.773543e-02
  2.350549e-02
  3.821058e-02
  6.923316e-02
  1.214804e-01
  1.794788e-01
  1.999614e-01
  1.664041e-01
  1.029608e-01
  5.519496e-02
  3.416287e-02
  2.777029e-02
  2.644448e-02
  2.658378e-02
  2.711562e-02
  2.773964e-02
  2.830934e-02
  2.852628e-02
  2.806833e-02
  2.769124e-02
  3.277536e-02
  7.068409e-02
  2.649772e-01
  7.931121e-01
  9.639536e-01
  9.961854e-01
  9.999000e-01
  9.999000e-01
  9.992626e-01
  9.964519e-01
  9.852274e-01
  9.374693e-01
  7.497193e-01
  3.283134e-01
  9.322371e-02
  8.516790e-02
  2.875739e-02
  1.437347e-02
  1.232450e-02
  1.395233e-02
  1.666108e-02
  2.009717e-02
  2.697248e-02
  5.257400e-02
  1.673072e-01
  5.544632e-01
  8.524673e-01
  9.480481e-01
  9.729461e-01
  9.794040e-01
  9.811533e-01
  9.810668e-01
  9.781922e-01
  9.650172e-01
  9.083608e-01
  6.981030e-01
  2.570912e-01
  7.753161e-02
  3.508387e-02
  2.490745e-02
  2.155039e-02
  1.990775e-02
  1.925974e-02
  2.038249e-02
  2.554482e-02
  3.743633e-02
  5.498406e-02
  7.375020e-02
  9.075542e-02
  9.945533e-02
  9.074987e-02
  6.785922e-02
  4.566353e-02
  3.268354e-02
  2.753926e-02
  2.633579e-02
  2.662725e-02
  2.747401e-02
  2.869761e-02
  3.052267e-02
  3.320625e-02
  3.574077e-02
  3.583130e-02
  3.340181e-02
  3.392172e-02
  5.892863e-02
  2.017118e-01
  6.815694e-01
  9.289931e-01
  9.870473e-01
  9.980000e-01
  9.994840e-01
  9.990315e-01
  9.973940e-01
  9.925053e-01
  9.742960e-01
  9.016269e-01
  6.583545e-01
  2.708365e-01
  2.861167e-01
  1.063799e-01
  4.219228e-02
  2.152449e-02
  1.629729e-02
  1.654128e-02
  1.871646e-02
  2.267664e-02
  3.401816e-02
  7.802134e-02
  2.328336e-01
  5.239655e-01
  7.394700e-01
  8.219718e-01
  8.503502e-01
  8.597453e-01
  8.584904e-01
  8.433922e-01
  7.940758e-01
  6.463636e-01
  3.442989e-01
  1.189970e-01
  4.720957e-02
  2.904827e-02
  2.406610e-02
  2.223377e-02
  2.167340e-02
  2.324720e-02
  3.152839e-02
  5.914714e-02
  1.207652e-01
  2.007128e-01
  2.599417e-01
  2.840223e-01
  2.642174e-01
  1.985265e-01
  1.117022e-01
  5.508921e-02
  3.311059e-02
  2.710032e-02
  2.633012e-02
  2.713598e-02
  2.868745e-02
  3.151045e-02
  3.770653e-02
  5.052887e-02
  6.577466e-02
  6.933661e-02
  5.745936e-02
  4.308883e-02
  4.841625e-02
  1.247560e-01
  4.428452e-01
  8.259570e-01
  9.560047e-01
  9.887609e-01
  9.964876e-01
  9.978797e-01
  9.973001e-01
  9.951282e-01
  9.884503e-01
  9.644267e-01
  8.782127e-01
  6.346086e-01
  6.917020e-01
  3.763942e-01
  1.652640e-01
  6.895108e-02
  3.223691e-02
  2.101278e-02
  1.927051e-02
  2.062088e-02
  2.457299e-02
  3.676584e-02
  7.334926e-02
  1.476206e-01
  2.312420e-01
  2.951085e-01
  3.368769e-01
  3.573126e-01
  3.547273e-01
  3.270918e-01
  2.731139e-01
  1.932670e-01
  1.041137e-01
  5.023125e-02
  3.111968e-02
  2.537719e-02
  2.349435e-02
  2.292434e-02
  2.404205e-02
  3.135400e-02
  6.406734e-02
  1.835497e-01
  4.402831e-01
  6.892759e-01
  7.933398e-01
  8.161338e-01
  7.818754e-01
  6.450653e-01
  3.600670e-01
  1.350328e-01
  5.151137e-02
  3.082076e-02
  2.724071e-02
  2.792468e-02
  3.061325e-02
  3.790583e-02
  6.073644e-02
  1.225623e-01
  2.038905e-01
  2.251042e-01
  1.661523e-01
  8.478326e-02
  5.047920e-02
  6.979579e-02
  2.079238e-01
  5.723303e-01
  8.512727e-01
  9.524272e-01
  9.838204e-01
  9.932429e-01
  9.956976e-01
  9.955667e-01
  9.933911e-01
  9.861593e-01
  9.618786e-01
  8.855547e-01
  9.169390e-01
  7.897104e-01
  5.408553e-01
  2.563032e-01
  9.934240e-02
  4.011315e-02
  2.413567e-02
  2.105285e-02
  2.141256e-02
  2.396614e-02
  3.091489e-02
  4.421804e-02
  6.000359e-02
  7.334098e-02
  8.279599e-02
  8.785103e-02
  8.780264e-02
  8.213104e-02
  7.091387e-02
  5.526689e-02
  3.913701e-02
  2.913564e-02
  2.508997e-02
  2.368394e-02
  2.324322e-02
  2.369194e-02
  2.735605e-02
  4.645506e-02
  1.375711e-01
  4.694164e-01
  8.098522e-01
  9.330835e-01
  9.665471e-01
  9.723097e-01
  9.614849e-01
  9.111957e-01
  7.353078e-01
  3.361809e-01
  9.804681e-02
  3.974711e-02
  2.908711e-02
  2.901986e-02
  3.378791e-02
  5.217286e-02
  1.274290e-01
  3.755622e-01
  6.582476e-01
  7.159301e-01
  5.434594e-01
  2.259197e-01
  7.877189e-02
  4.850705e-02
  8.325058e-02
  2.342383e-01
  5.531625e-01
  8.151281e-01
  9.310901e-01
  9.736329e-01
  9.885025e-01
  9.934002e-01
  9.944128e-01
  9.929825e-01
  9.871227e-01
  9.687615e-01
  9.803203e-01
  9.501588e-01
  8.691175e-01
  6.661594e-01
  3.137188e-01
  1.001863e-01
  3.854505e-02
  2.440366e-02
  2.130388e-02
  2.072751e-02
  2.126535e-02
  2.286592e-02
  2.500560e-02
  2.707498e-02
  2.891086e-02
  3.039248e-02
  3.120697e-02
  3.102944e-02
  2.972467e-02
  2.751517e-02
  2.517313e-02
  2.369780e-02
  2.310491e-02
  2.295255e-02
  2.312930e-02
  2.436268e-02
  3.083679e-02
  6.445799e-02
  2.271798e-01
  7.214127e-01
  9.400130e-01
  9.900206e-01
  9.984260e-01
  9.992956e-01
  9.966857e-01
  9.806720e-01
  9.007035e-01
  5.926567e-01
  1.660290e-01
  5.227195e-02
  3.146302e-02
  3.022116e-02
  3.764814e-02
  7.230921e-02
  2.300011e-01
  6.957544e-01
  9.155859e-01
  9.459985e-01
  8.410018e-01
  4.535216e-01
  1.303500e-01
  4.854526e-02
  4.031598e-02
  7.584766e-02
  1.914408e-01
  4.391779e-01
  7.323443e-01
  8.909506e-01
  9.569517e-01
  9.822031e-01
  9.913069e-01
  9.942114e-01
  9.942219e-01
  9.910024e-01
  9.959989e-01
  9.906595e-01
  9.711141e-01
  8.998716e-01
  6.594332e-01
  2.301449e-01
  6.836107e-02
  3.115408e-02
  2.274027e-02
  2.024865e-02
  1.912838e-02
  1.860816e-02
  1.866030e-02
  1.950099e-02
  2.137484e-02
  2.403602e-02
  2.638647e-02
  2.739688e-02
  2.672360e-02
  2.500231e-02
  2.349748e-02
  2.274390e-02
  2.252919e-02
  2.258793e-02
  2.296982e-02
  2.462605e-02
  3.282256e-02
  7.545497e-02
  2.793441e-01
  8.087814e-01
  9.713236e-01
  9.998215e-01
  9.999000e-01
  9.999000e-01
  9.999000e-01
  9.945611e-01
  9.466141e-01
  7.157297e-01
  2.095133e-01
  6.056189e-02
  3.309824e-02
  3.105478e-02
  3.991273e-02
  8.350223e-02
  2.836478e-01
  7.993314e-01
  9.698705e-01
  9.901201e-01
  9.144901e-01
  5.712718e-01
  1.610702e-01
  5.201255e-02
  2.966977e-02
  3.135280e-02
  5.624335e-02
  1.307028e-01
  3.065987e-01
  6.054189e-01
  8.271205e-01
  9.329730e-01
  9.745497e-01
  9.896041e-01
  9.949911e-01
  9.967190e-01
  9.994045e-01
  9.999000e-01
  9.962355e-01
  9.712429e-01
  8.410637e-01
  3.915333e-01
  1.078676e-01
  3.970087e-02
  2.469325e-02
  2.045380e-02
  1.866697e-02
  1.806956e-02
  1.921547e-02
  2.364471e-02
  3.291616e-02
  4.586152e-02
  5.595147e-02
  5.787086e-02
  5.045221e-02
  3.806028e-02
  2.863241e-02
  2.420198e-02
  2.268829e-02
  2.236103e-02
  2.265627e-02
  2.428592e-02
  3.229164e-02
  7.376756e-02
  2.726064e-01
  8.002620e-01
  9.686033e-01
  9.990675e-01
  9.999000e-01
  9.999000e-01
  9.999000e-01
  9.925221e-01
  9.390782e-01
  6.931493e-01
  2.005413e-01
  5.905693e-02
  3.323847e-02
  3.159971e-02
  3.994853e-02
  7.842209e-02
  2.524870e-01
  7.375502e-01
  9.339073e-01
  9.566903e-01
  8.567686e-01
  4.764920e-01
  1.370996e-01
  4.835981e-02
  2.770696e-02
  2.226326e-02
  2.403870e-02
  3.843288e-02
  8.389824e-02
  2.032428e-01
  4.513671e-01
  7.450545e-01
  9.031671e-01
  9.655420e-01
  9.879870e-01
  9.962381e-01
  9.962794e-01
  9.999000e-01
  9.999000e-01
  9.877212e-01
  8.937280e-01
  4.880529e-01
  1.335202e-01
  4.520497e-02
  2.589487e-02
  2.059855e-02
  1.887896e-02
  2.017207e-02
  2.832675e-02
  5.205077e-02
  1.007594e-01
  1.685341e-01
  2.166418e-01
  2.209784e-01
  1.768825e-01
  1.050115e-01
  5.298401e-02
  3.090544e-02
  2.404338e-02
  2.228555e-02
  2.216480e-02
  2.337166e-02
  2.944797e-02
  6.035864e-02
  2.102799e-01
  6.874563e-01
  9.273517e-01
  9.857541e-01
  9.966261e-01
  9.975052e-01
  9.928280e-01
  9.694946e-01
  8.681068e-01
  5.200164e-01
  1.449889e-01
  4.929493e-02
  3.281188e-02
  3.379236e-02
  4.233544e-02
  6.804318e-02
  1.665409e-01
  4.756081e-01
  7.321600e-01
  7.648135e-01
  5.946504e-01
  2.522745e-01
  8.560256e-02
  4.077724e-02
  2.817177e-02
  2.264137e-02
  1.942408e-02
  1.932119e-02
  2.687435e-02
  5.471745e-02
  1.351805e-01
  3.329237e-01
  6.574012e-01
  8.663169e-01
  9.530711e-01
  9.848359e-01
  9.740638e-01
  9.908242e-01
  9.941957e-01
  9.753682e-01
  8.613921e-01
  4.341820e-01
  1.207926e-01
  4.301378e-02
  2.537760e-02
  2.056836e-02
  2.072698e-02
  3.029466e-02
  6.866458e-02
  1.770675e-01
  3.831646e-01
  6.239051e-01
  7.424929e-01
  7.470837e-01
  6.310963e-01
  3.683256e-01
  1.447712e-01
  5.302704e-02
  2.831442e-02
  2.258684e-02
  2.154348e-02
  2.211241e-02
  2.558197e-02
  4.217297e-02
  1.197859e-01
  4.088122e-01
  7.705610e-01
  9.162181e-01
  9.578087e-01
  9.630418e-01
  9.432463e-01
  8.683166e-01
  6.490479e-01
  2.643144e-01
  8.160333e-02
  3.916582e-02
  3.529871e-02
  4.539587e-02
  6.632280e-02
  9.107204e-02
  1.254033e-01
  1.985006e-01
  2.703944e-01
  2.705422e-01
  1.939992e-01
  9.813280e-02
  5.286380e-02
  3.826807e-02
  3.230416e-02
  2.734153e-02
  2.242273e-02
  1.847438e-02
  1.683571e-02
  2.052411e-02
  3.841281e-02
  9.585322e-02
  2.521904e-01
  5.559513e-01
  8.112646e-01
  9.292860e-01
  8.606916e-01
  9.259262e-01
  9.379721e-01
  8.887345e-01
  6.899526e-01
  2.686188e-01
  8.152282e-02
  3.512394e-02
  2.354605e-02
  2.106320e-02
  2.771417e-02
  6.549894e-02
  2.079963e-01
  5.314924e-01
  8.018760e-01
  9.159908e-01
  9.536627e-01
  9.547726e-01
  9.127282e-01
  7.554122e-01
  3.735322e-01
  1.064860e-01
  3.777920e-02
  2.351675e-02
  2.085650e-02
  2.079558e-02
  2.231190e-02
  2.879119e-02
  5.564492e-02
  1.526524e-01
  3.758565e-01
  6.364115e-01
  7.592969e-01
  7.780593e-01
  7.133203e-01
  5.221964e-01
  2.621941e-01
  1.007209e-01
  4.543607e-02
  3.601774e-02
  4.874851e-02
  9.548015e-02
  1.889791e-01
  2.612956e-01
  2.598410e-01
  1.916741e-01
  1.259843e-01
  9.498663e-02
  7.199621e-02
  5.413350e-02
  4.904738e-02
  5.094663e-02
  5.012606e-02
  4.242175e-02
  3.189456e-02
  2.346468e-02
  1.823799e-02
  1.578974e-02
  1.756371e-02
  2.982318e-02
  7.092203e-02
  1.835225e-01
  4.202111e-01
  7.074072e-01
  4.546840e-01
  6.318832e-01
  6.727139e-01
  5.553203e-01
  3.061338e-01
  1.146854e-01
  4.652209e-02
  2.726137e-02
  2.173240e-02
  2.362510e-02
  4.684371e-02
  1.582190e-01
  5.067912e-01
  8.350268e-01
  9.521400e-01
  9.861535e-01
  9.954843e-01
  9.958842e-01
  9.830471e-01
  9.151936e-01
  6.441173e-01
  1.828006e-01
  5.080080e-02
  2.472486e-02
  2.007501e-02
  1.954358e-02
  2.011511e-02
  2.222201e-02
  2.948246e-02
  5.214690e-02
  1.040544e-01
  1.769994e-01
  2.283948e-01
  2.387343e-01
  2.065370e-01
  1.419052e-01
  7.786170e-02
  4.314483e-02
  3.353797e-02
  4.188135e-02
  8.860937e-02
  2.640557e-01
  5.968592e-01
  7.570322e-01
  7.153291e-01
  4.500884e-01
  1.601701e-01
  7.079917e-02
  5.154430e-02
  5.623894e-02
  8.315867e-02
  1.194782e-01
  1.318218e-01
  1.048436e-01
  6.392101e-02
  3.610792e-02
  2.365289e-02
  1.807047e-02
  1.565886e-02
  1.662901e-02
  2.496448e-02
  5.154991e-02
  1.185857e-01
  2.527501e-01
  1.171565e-01
  1.690371e-01
  1.852411e-01
  1.511893e-01
  9.028613e-02
  4.696104e-02
  2.889906e-02
  2.229823e-02
  2.094332e-02
  3.003249e-02
  8.667338e-02
  3.340701e-01
  7.755812e-01
  9.470436e-01
  9.895185e-01
  9.987531e-01
  9.999000e-01
  9.999000e-01
  9.963733e-01
  9.596703e-01
  7.703413e-01
  2.372257e-01
  6.010557e-02
  2.513828e-02
  1.908466e-02
  1.834119e-02
  1.861487e-02
  1.935725e-02
  2.119718e-02
  2.591871e-02
  3.564124e-02
  4.893583e-02
  5.889411e-02
  6.113812e-02
  5.515688e-02
  4.380470e-02
  3.341168e-02
  2.899813e-02
  3.219268e-02
  5.323400e-02
  1.514917e-01
  5.190932e-01
  8.664604e-01
  9.551069e-01
  9.261005e-01
  7.169564e-01
  2.430179e-01
  8.299124e-02
  5.984800e-02
  9.839429e-02
  2.324942e-01
  4.004213e-01
  4.604846e-01
  3.574417e-01
  1.849749e-01
  7.149220e-02
  3.391756e-02
  2.240702e-02
  1.804785e-02
  1.629719e-02
  1.699039e-02
  2.220284e-02
  3.661716e-02
  6.708872e-02
  3.766968e-02
  4.773059e-02
  5.138605e-02
  4.573882e-02
  3.497727e-02
  2.639330e-02
  2.174314e-02
  1.961671e-02
  2.134735e-02
  4.076570e-02
  1.496763e-01
  5.731062e-01
  8.992008e-01
  9.819195e-01
  9.980815e-01
  9.999000e-01
  9.999000e-01
  9.999000e-01
  9.977198e-01
  9.678937e-01
  8.002573e-01
  2.537646e-01
  6.195960e-02
  2.421581e-02
  1.786869e-02
  1.718283e-02
  1.747084e-02
  1.796129e-02
  1.869251e-02
  1.999338e-02
  2.216940e-02
  2.486196e-02
  2.692641e-02
  2.761007e-02
  2.691729e-02
  2.558960e-02
  2.497081e-02
  2.641222e-02
  3.273437e-02
  5.912852e-02
  1.822090e-01
  6.240497e-01
  9.249257e-01
  9.887582e-01
  9.623561e-01
  7.784275e-01
  2.722028e-01
  9.196580e-02
  8.093668e-02